TITLE     = "Viper 2D flow field data"
VARIABLES = "X"
"Y"
"U"
"V"
"P"
"vort_xy_plane"
ZONE T="Data zone"
 STRANDID=0, SOLUTIONTIME=0
 Nodes=8240, Elements=8064, ZONETYPE=FEQuadrilateral
 DATAPACKING=BLOCK
 DT=(SINGLE SINGLE SINGLE SINGLE SINGLE SINGLE )
 6.479342580E-001 6.392094493E-001 6.226704121E-001 6.061313152E-001 5.974065661E-001
 6.389439106E-001 6.302964091E-001 6.139039397E-001 5.975114703E-001 5.888640285E-001
 6.219013333E-001 6.134005189E-001 5.972858667E-001 5.811712742E-001 5.726704001E-001
 6.048588157E-001 5.965045691E-001 5.806677938E-001 5.648310781E-001 5.564767718E-001
 5.958684683E-001 5.875915289E-001 5.719013810E-001 5.562111735E-001 5.479342341E-001
 5.886818171E-001 5.721427202E-001 5.556036830E-001 5.468788743E-001 5.802165866E-001
 5.638241172E-001 5.474316478E-001 5.387841463E-001 5.641695261E-001 5.480549335E-001
 5.319403410E-001 5.234394670E-001 5.481225252E-001 5.322857499E-001 5.164490342E-001
 5.080947280E-001 5.396572948E-001 5.239671469E-001 5.082769394E-001 5.000000000E-001
 6.999999881E-001 6.908274293E-001 6.734394431E-001 6.560515165E-001 6.468788981E-001
 6.910096407E-001 6.819143891E-001 6.646729708E-001 6.474316120E-001 6.383363605E-001
 6.739671230E-001 6.650184393E-001 6.480549574E-001 6.310914159E-001 6.221427321E-001
 6.569246054E-001 6.481224895E-001 6.314368844E-001 6.147512197E-001 6.059491038E-001
 6.377063394E-001 6.203183532E-001 6.029303670E-001 5.937578082E-001 6.292411089E-001
 6.119996905E-001 5.947583318E-001 5.856630802E-001 6.131940484E-001 5.962305665E-001
 5.792670250E-001 5.703183413E-001 5.971469879E-001 5.804613829E-001 5.637757182E-001
 5.549736023E-001 -8.999999762E-001 -8.854285479E-001 -8.578063250E-001 -8.301840425E-001
 -8.156126142E-001 -9.287788868E-001 -9.150461555E-001 -8.890137672E-001 -8.629813790E-001
 -8.492486477E-001 -9.833333492E-001 -9.711904526E-001 -9.481719136E-001 -9.251533747E-001
 -9.130105376E-001 -1.037887812E+000 -1.027334809E+000 -1.007330060E+000 -9.873254299E-001
 -9.767724276E-001 -1.066666722E+000 -1.056952357E+000 -1.038537502E+000 -1.020122766E+000
 -1.010408401E+000 -8.010411859E-001 -7.734189630E-001 -7.457966805E-001 -7.312252522E-001
 -8.355159163E-001 -8.094835281E-001 -7.834511399E-001 -7.697184086E-001 -9.008677006E-001
 -8.778491020E-001 -8.548305631E-001 -8.426877260E-001 -9.662194252E-001 -9.462147355E-001
 -9.262100458E-001 -9.156570435E-001 -1.000694156E+000 -9.822793007E-001 -9.638644457E-001
 -9.541501999E-001 -1.095445514E+000 -1.086569905E+000 -1.069744945E+000 -1.052919984E+000
 -1.044044375E+000 -1.149999976E+000 -1.142714262E+000 -1.128903151E+000 -1.115092039E+000
 -1.107806325E+000 -1.204554439E+000 -1.198858619E+000 -1.188061357E+000 -1.177264094E+000
 -1.171568155E+000 -1.233333349E+000 -1.228476167E+000 -1.219268799E+000 -1.210061312E+000
 -1.205204248E+000 -1.035168886E+000 -1.018343925E+000 -1.001518965E+000 -9.926433563E-001
 -1.100520611E+000 -1.086709499E+000 -1.072898388E+000 -1.065612674E+000 -1.165872335E+000
 -1.155075073E+000 -1.144277811E+000 -1.138581991E+000 -1.200347066E+000 -1.191139698E+000
 -1.181932211E+000 -1.177075148E+000 -1.262112141E+000 -1.258093715E+000 -1.250476241E+000
 -1.242858648E+000 -1.238840222E+000 -1.316666722E+000 -1.314238071E+000 -1.309634328E+000
 -1.305030704E+000 -1.302602053E+000 -1.371221185E+000 -1.370382428E+000 -1.368792534E+000
 -1.367202640E+000 -1.366364002E+000 -1.399999976E+000 -1.399999976E+000 -1.399999976E+000
 -1.399999976E+000 -1.399999976E+000 -1.234821796E+000 -1.227204204E+000 -1.219586730E+000
 -1.215568185E+000 -1.300173521E+000 -1.295569777E+000 -1.290966153E+000 -1.288537502E+000
 -1.365525246E+000 -1.363935471E+000 -1.362345576E+000 -1.361506820E+000 -1.399999976E+000
 -1.399999976E+000 -1.399999976E+000 -1.399999976E+000 -1.444031715E+000 -1.445924282E+000
 -1.449511886E+000 -1.453099608E+000 -1.454992175E+000 -1.527500033E+000 -1.532980204E+000
 -1.543368816E+000 -1.553757429E+000 -1.559237719E+000 -1.610968351E+000 -1.620036244E+000
 -1.637225747E+000 -1.654415250E+000 -1.663483143E+000 -1.654999971E+000 -1.665960431E+000
 -1.686737657E+000 -1.707514882E+000 -1.718475342E+000 -1.456884742E+000 -1.460472345E+000
 -1.464060068E+000 -1.465952635E+000 -1.564717889E+000 -1.575106502E+000 -1.585495114E+000
 -1.590975285E+000 -1.672551036E+000 -1.689740658E+000 -1.706930161E+000 -1.715998054E+000
 -1.729435802E+000 -1.750213027E+000 -1.770990133E+000 -1.781950593E+000 -1.699031711E+000
 -1.711884737E+000 -1.736249566E+000 -1.760614395E+000 -1.773467422E+000 -1.782500029E+000
 -1.798940778E+000 -1.830106497E+000 -1.861272216E+000 -1.877712965E+000 -1.865968347E+000
 -1.885996699E+000 -1.923963428E+000 -1.961930156E+000 -1.981958508E+000 -1.909999967E+000
 -1.931921005E+000 -1.973475337E+000 -2.015029669E+000 -2.036950588E+000 -1.786320567E+000
 -1.810685396E+000 -1.835050225E+000 -1.847903252E+000 -1.894153714E+000 -1.925319433E+000
 -1.956485271E+000 -1.972926021E+000 -2.001986980E+000 -2.039953470E+000 -2.077920198E+000
 -2.097948790E+000 -2.058871508E+000 -2.100425959E+000 -2.141980410E+000 -2.163901329E+000
 -2.584130526E+000 -2.536888838E+000 -2.447335482E+000 -2.357782125E+000 -2.310540438E+000
 -2.655939817E+000 -2.604391098E+000 -2.506672859E+000 -2.408954620E+000 -2.357405663E+000
 -2.792065144E+000 -2.732351542E+000 -2.619155407E+000 -2.505959272E+000 -2.446245670E+000
 -2.928190470E+000 -2.860311747E+000 -2.731637955E+000 -2.602964163E+000 -2.535085440E+000
 -3.000000000E+000 -2.927814007E+000 -2.790975332E+000 -2.654136658E+000 -2.581950665E+000
 -2.263298988E+000 -2.173745632E+000 -2.084192276E+000 -2.305856943E+000 -2.208138704E+000
 -2.110420465E+000 -2.386531830E+000 -2.273335695E+000 -2.160139799E+000 -2.467206717E+000
 -2.338532925E+000 -2.209859133E+000 -2.509764671E+000 -2.372925997E+000 -2.236087084E+000
 -2.168260813E+000 -2.145963430E+000 -2.103695631E+000 -2.061427832E+000 -2.039130449E+000
 -2.240070343E+000 -2.213465691E+000 -2.163033009E+000 -2.112600327E+000 -2.085995674E+000
 -2.376195669E+000 -2.341426134E+000 -2.275515556E+000 -2.209604979E+000 -2.174835443E+000
 -2.512320995E+000 -2.469386578E+000 -2.387998104E+000 -2.306609631E+000 -2.263675213E+000
 -2.016833067E+000 -1.974565148E+000 -1.932297349E+000 -2.059391022E+000 -2.008958340E+000
 -1.958525538E+000 -2.140065908E+000 -2.074155331E+000 -2.008244753E+000 -2.220740795E+000
 -2.139352560E+000 -2.057964087E+000 -7.310224771E-001 -7.456114292E-001 -7.732668519E-001
 -8.009222746E-001 -8.155112267E-001 -7.695273161E-001 -7.832765579E-001 -8.093401790E-001
 -8.354038596E-001 -8.491531014E-001 -8.425187469E-001 -8.546761870E-001 -8.777223825E-001
 -9.007685781E-001 -9.129260182E-001 -9.155101776E-001 -9.260758162E-001 -9.461045861E-001
 -9.661332965E-001 -9.766989946E-001 -9.540149570E-001 -9.637409449E-001 -9.821779132E-001
 -1.000614882E+000 -1.010340810E+000 -8.301001787E-001 -8.577556014E-001 -8.854110837E-001
 -8.629023433E-001 -8.889659643E-001 -9.150296450E-001 -9.250834584E-001 -9.481296539E-001
 -9.711759090E-001 -9.872646332E-001 -1.007293344E+000 -1.027322173E+000 -1.020066738E+000
 -1.038503766E+000 -1.056940675E+000 -9.925197959E-001 -1.001406074E+000 -1.018251181E+000
 -1.035096407E+000 -1.043982625E+000 -1.065511227E+000 -1.072805762E+000 -1.086633444E+000
 -1.100461125E+000 -1.107755661E+000 -1.138502717E+000 -1.144205332E+000 -1.155015588E+000
 -1.165825844E+000 -1.171528578E+000 -1.177007437E+000 -1.181870461E+000 -1.191088915E+000
 -1.200307488E+000 -1.205170393E+000 -1.052868962E+000 -1.069714069E+000 -1.086559296E+000
 -1.115050077E+000 -1.128877759E+000 -1.142705560E+000 -1.177231312E+000 -1.188041568E+000
 -1.198851824E+000 -1.210033417E+000 -1.219251871E+000 -1.228470325E+000 -1.215512276E+000
 -1.219535589E+000 -1.227162242E+000 -1.234789014E+000 -1.238812208E+000 -1.288503766E+000
 -1.290935278E+000 -1.295544505E+000 -1.300153732E+000 -1.302585244E+000 -1.361495137E+000
 -1.362334847E+000 -1.363926649E+000 -1.365518451E+000 -1.366358161E+000 -1.399999976E+000
 -1.399999976E+000 -1.399999976E+000 -1.399999976E+000 -1.399999976E+000 -1.242835522E+000
 -1.250462174E+000 -1.258088946E+000 -1.305016756E+000 -1.309625983E+000 -1.314235210E+000
 -1.367197871E+000 -1.368789673E+000 -1.370381474E+000 -1.399999976E+000 -1.399999976E+000
 -1.399999976E+000 -1.466328979E+000 -1.464403987E+000 -1.460754633E+000 -1.457105398E+000
 -1.455180287E+000 -1.592065215E+000 -1.586490870E+000 -1.575923920E+000 -1.565356970E+000
 -1.559782624E+000 -1.717801452E+000 -1.708577752E+000 -1.691093087E+000 -1.673608422E+000
 -1.664384842E+000 -1.784130454E+000 -1.772981763E+000 -1.751847863E+000 -1.730713844E+000
 -1.719565153E+000 -1.453255296E+000 -1.449605942E+000 -1.445956707E+000 -1.554208279E+000
 -1.543641329E+000 -1.533074379E+000 -1.655161262E+000 -1.637676597E+000 -1.620191932E+000
 -1.708416581E+000 -1.687282562E+000 -1.666148663E+000 -1.850459456E+000 -1.837385654E+000
 -1.812602520E+000 -1.787819266E+000 -1.774745584E+000 -1.976195574E+000 -1.959472656E+000
 -1.927771688E+000 -1.896070838E+000 -1.879347801E+000 -2.101931810E+000 -2.081559420E+000
 -2.042940855E+000 -2.004322290E+000 -1.983950019E+000 -1.761671782E+000 -1.736888647E+000
 -1.712105393E+000 -1.862624764E+000 -1.830923915E+000 -1.799223065E+000 -1.963577747E+000
 -1.924959183E+000 -1.886340618E+000 2.361932516E+000 2.341211796E+000 2.301932573E+000
 2.262653351E+000 2.241932392E+000 2.385772943E+000 2.364513636E+000 2.324213266E+000
 2.283912659E+000 2.262653351E+000 2.430966139E+000 2.408685684E+000 2.366449356E+000
 2.324213266E+000 2.301932573E+000 2.476159334E+000 2.452857494E+000 2.408685684E+000
 2.364513636E+000 2.341211796E+000 2.500000000E+000 2.476159334E+000 2.430966139E+000
 2.385772943E+000 2.361932516E+000 2.221211672E+000 2.181932449E+000 2.142653227E+000
 2.121932507E+000 2.241393805E+000 2.201093435E+000 2.160793066E+000 2.139533520E+000
 2.279651880E+000 2.237415552E+000 2.195179462E+000 2.172898769E+000 2.317909956E+000
 2.273737907E+000 2.229565859E+000 2.206264019E+000 2.338091850E+000 2.292898655E+000
 2.247705460E+000 2.223865032E+000 2.223865032E+000 2.206264019E+000 2.172898769E+000
 2.139533520E+000 2.121932507E+000 2.247705460E+000 2.229565859E+000 2.195179462E+000
 2.160793066E+000 2.142653227E+000 2.292898655E+000 2.273737907E+000 2.237415552E+000
 2.201093435E+000 2.181932449E+000 2.338091850E+000 2.317909956E+000 2.279651880E+000
 2.241393805E+000 2.221211672E+000 2.104331493E+000 2.070966244E+000 2.037600994E+000
 2.019999981E+000 2.124513626E+000 2.090127230E+000 2.055740833E+000 2.037600994E+000
 2.162771702E+000 2.126449347E+000 2.090127230E+000 2.070966244E+000 2.201029539E+000
 2.162771702E+000 2.124513626E+000 2.104331493E+000 6.483799219E-001 6.553928256E-001
 6.686866879E-001 6.819805503E-001 6.889933944E-001 6.208966374E-001 6.277585626E-001
 6.407662630E-001 6.537740231E-001 6.606358886E-001 5.687980652E-001 5.753738284E-001
 5.878391266E-001 6.003044248E-001 6.068801880E-001 5.166994929E-001 5.229890943E-001
 5.349119902E-001 5.468348265E-001 5.531244278E-001 4.892161787E-001 4.953548610E-001
 5.069915652E-001 5.186282992E-001 5.247669220E-001 6.960062981E-001 7.093001604E-001
 7.225940228E-001 7.296068668E-001 6.674978137E-001 6.805055737E-001 6.935132742E-001
 7.003751993E-001 6.134559512E-001 6.259212494E-001 6.383865476E-001 6.449623108E-001
 5.594140887E-001 5.713369250E-001 5.832598209E-001 5.895494223E-001 5.309056044E-001
 5.425423384E-001 5.541790724E-001 5.603176951E-001 7.366197705E-001 7.499136329E-001
 7.632074952E-001 7.702203393E-001 7.072371244E-001 7.202448249E-001 7.332525849E-001
 7.401144505E-001 6.515380740E-001 6.640033722E-001 6.764686704E-001 6.830444336E-001
 5.958390236E-001 6.077619195E-001 6.196847558E-001 6.259743571E-001 5.664563775E-001
 5.780931115E-001 5.897298455E-001 8.075436950E-001 8.154307604E-001 8.303818107E-001
 8.453328609E-001 8.532198668E-001 7.800604105E-001 7.877964973E-001 8.024613857E-001
 8.171262741E-001 8.248623610E-001 7.279618382E-001 7.354117632E-001 7.495342493E-001
 7.636566758E-001 7.711066604E-001 6.758632660E-001 6.830270886E-001 6.966071129E-001
 7.101871371E-001 7.173509002E-001 8.611069322E-001 8.760579824E-001 8.910090327E-001
 8.988960385E-001 8.325985074E-001 8.472633958E-001 8.619282842E-001 8.696643710E-001
 7.785565853E-001 7.926790714E-001 8.068014979E-001 8.142514825E-001 7.245147228E-001
 7.380947471E-001 7.516747713E-001 7.588385940E-001 9.067831039E-001 9.217341542E-001
 9.366852045E-001 9.445722103E-001 8.774004579E-001 8.920653462E-001 9.067302346E-001
 9.144663215E-001 8.217014074E-001 8.358238935E-001 8.499463201E-001 8.573963046E-001
 7.660024166E-001 7.795824409E-001 7.931624651E-001 8.003262281E-001 9.667074680E-001
 9.754686952E-001 9.920769334E-001 1.008685112E+000 1.017446399E+000 9.392241836E-001
 9.478344321E-001 9.641565084E-001 9.804785252E-001 9.890888333E-001 8.871256113E-001
 8.954497576E-001 9.112293720E-001 9.270089865E-001 9.353331327E-001 8.350270391E-001
 8.430650234E-001 8.583021760E-001 8.735393882E-001 8.815773726E-001 1.026207566E+000
 1.042815804E+000 1.059424043E+000 1.068185210E+000 9.976991415E-001 1.014021158E+000
 1.030343294E+000 1.038953543E+000 9.436572790E-001 9.594368935E-001 9.752165079E-001
 9.835406542E-001 8.896153569E-001 9.048525691E-001 9.200897813E-001 9.281277657E-001
 1.076946497E+000 1.093554616E+000 1.110162854E+000 1.118924141E+000 1.047563791E+000
 1.063885927E+000 1.080207944E+000 1.088818192E+000 9.918648005E-001 1.007644415E+000
 1.023424029E+000 1.031748176E+000 9.361657500E-001 9.514029622E-001 9.666401148E-001
 9.746780992E-001 1.381839871E+000 1.382619262E+000 1.384096622E+000 1.385573864E+000
 1.386353254E+000 1.310157657E+000 1.312315226E+000 1.316405296E+000 1.320495367E+000
 1.322652936E+000 1.174273729E+000 1.179044008E+000 1.188086748E+000 1.197129488E+000
 1.201899767E+000 1.038389683E+000 1.045772672E+000 1.059768200E+000 1.073763728E+000
 1.081146717E+000 1.387132645E+000 1.388609886E+000 1.390087247E+000 1.390866637E+000
 1.324810505E+000 1.328900576E+000 1.332990646E+000 1.335148215E+000 1.206670046E+000
 1.215712905E+000 1.224755645E+000 1.229525924E+000 1.088529706E+000 1.102525115E+000
 1.116520643E+000 1.123903632E+000 1.391645908E+000 1.393123269E+000 1.394600630E+000
 1.395380020E+000 1.337305784E+000 1.341395855E+000 1.345485926E+000 1.347643495E+000
 1.234296203E+000 1.243338943E+000 1.252381802E+000 1.257152081E+000 1.131286621E+000
 1.145282149E+000 1.159277678E+000 1.166660666E+000 1.796972275E+000 1.789769769E+000
 1.776116252E+000 1.762462735E+000 1.755260110E+000 1.725290060E+000 1.719465733E+000
 1.708424926E+000 1.697384119E+000 1.691559792E+000 1.589406133E+000 1.586194515E+000
 1.580106378E+000 1.574018359E+000 1.570806742E+000 1.453522086E+000 1.452923179E+000
 1.451787829E+000 1.450652480E+000 1.450053573E+000 1.748057604E+000 1.734404087E+000
 1.720750570E+000 1.713548064E+000 1.685735583E+000 1.674694777E+000 1.663653970E+000
 1.657829642E+000 1.567595124E+000 1.561506987E+000 1.555418968E+000 1.552207351E+000
 1.449454665E+000 1.448319316E+000 1.447183967E+000 1.446585059E+000 1.706345439E+000
 1.692691922E+000 1.679038405E+000 1.671835899E+000 1.652005315E+000 1.640964508E+000
 1.629923701E+000 1.624099374E+000 1.548995733E+000 1.542907596E+000 1.536819577E+000
 1.533607960E+000 1.445986152E+000 1.444850802E+000 1.443715453E+000 1.443116546E+000
 2.284305334E+000 2.264939785E+000 2.228229523E+000 2.191519260E+000 2.172153711E+000
 2.200155973E+000 2.182890654E+000 2.150161743E+000 2.117432833E+000 2.100167513E+000
 2.040638924E+000 2.027354717E+000 2.002172947E+000 1.976991057E+000 1.963706970E+000
 1.881121635E+000 1.871818900E+000 1.854184031E+000 1.836549282E+000 1.827246547E+000
 2.152788162E+000 2.116077900E+000 2.079367638E+000 2.060002089E+000 2.082902193E+000
 2.050173044E+000 2.017444134E+000 2.000178814E+000 1.950422883E+000 1.925240993E+000
 1.900059104E+000 1.886775017E+000 1.817943692E+000 1.800308943E+000 1.782674193E+000
 1.773371339E+000 2.040636539E+000 2.003926277E+000 1.967216015E+000 1.947850466E+000
 1.982913494E+000 1.950184464E+000 1.917455554E+000 1.900190115E+000 1.873491049E+000
 1.848309159E+000 1.823127270E+000 1.809843183E+000 1.764068604E+000 1.746433735E+000
 1.728798985E+000 1.719496250E+000 2.771638632E+000 2.740109921E+000 2.680342913E+000
 2.620575905E+000 2.589047432E+000 2.687489271E+000 2.658060789E+000 2.602275133E+000
 2.546489477E+000 2.517060995E+000 2.527971983E+000 2.502524853E+000 2.454286337E+000
 2.406047583E+000 2.380600691E+000 2.368454695E+000 2.346988916E+000 2.306297541E+000
 2.265605927E+000 2.244140148E+000 2.557518721E+000 2.497751713E+000 2.437984705E+000
 2.406456232E+000 2.487632751E+000 2.431846857E+000 2.376061201E+000 2.346632957E+000
 2.355153561E+000 2.306914806E+000 2.258676291E+000 2.233229160E+000 2.222674370E+000
 2.181982756E+000 2.141291142E+000 2.119825363E+000 2.374927521E+000 2.315160513E+000
 2.255393505E+000 2.317204475E+000 2.261418819E+000 2.205633163E+000 2.176204681E+000
 2.207782030E+000 2.159543514E+000 2.111304760E+000 2.085857630E+000 2.098359585E+000
 2.057668209E+000 2.016976595E+000 1.995510697E+000 7.785472274E-001 7.943319082E-001
 8.101166487E-001 8.184435368E-001 7.485558987E-001 7.645577788E-001 7.805597186E-001
 7.890011072E-001 6.917030215E-001 7.081166506E-001 7.245302796E-001 7.331888676E-001
 6.348501444E-001 6.516755223E-001 6.685008407E-001 6.773766279E-001 8.267703652E-001
 8.425551057E-001 8.583398461E-001 8.666666746E-001 7.974425554E-001 8.134444952E-001
 8.294463754E-001 8.378878236E-001 7.418474555E-001 7.582610846E-001 7.746747136E-001
 7.833333611E-001 6.862524152E-001 7.030777335E-001 7.199030519E-001 7.287788391E-001
 9.522355795E-001 9.667624831E-001 9.812894464E-001 9.889527559E-001 9.222442508E-001
 9.369883537E-001 9.517325163E-001 9.595103860E-001 8.653913736E-001 8.805472255E-001
 8.957030773E-001 9.036981463E-001 8.085384965E-001 8.241060376E-001 8.396736383E-001
 8.478859067E-001 9.966161251E-001 1.011143088E+000 1.025670052E+000 1.033333302E+000
 9.672883153E-001 9.820324183E-001 9.967765808E-001 1.004554510E+000 9.116932154E-001
 9.268490672E-001 9.420049191E-001 9.499999881E-001 8.560981750E-001 8.716657162E-001
 8.872332573E-001 8.954455256E-001 1.125923872E+000 1.139193058E+000 1.152462244E+000
 1.159462094E+000 1.095932603E+000 1.109418988E+000 1.122905254E+000 1.130019665E+000
 1.039079785E+000 1.052977800E+000 1.066875815E+000 1.074207425E+000 9.822268486E-001
 9.965366125E-001 1.010846376E+000 1.018395185E+000 1.166461825E+000 1.179731011E+000
 1.193000197E+000 1.200000048E+000 1.137134075E+000 1.150620461E+000 1.164106727E+000
 1.171221137E+000 1.081539035E+000 1.095437050E+000 1.109335065E+000 1.116666675E+000
 1.025943875E+000 1.040253639E+000 1.054563403E+000 1.062112212E+000 1.398863316E+000
 1.405466318E+000 1.412069440E+000 1.415552735E+000 1.351734042E+000 1.359488130E+000
 1.367242217E+000 1.371332765E+000 1.262393594E+000 1.272329688E+000 1.282265902E+000
 1.287507415E+000 1.173053265E+000 1.185171366E+000 1.197289467E+000 1.203682065E+000
 1.419036031E+000 1.425639153E+000 1.432242155E+000 1.435725451E+000 1.375423312E+000
 1.383177400E+000 1.390931487E+000 1.395022035E+000 1.292748928E+000 1.302685022E+000
 1.312621236E+000 1.317862749E+000 1.210074663E+000 1.222192764E+000 1.234310865E+000
 1.240703464E+000 1.671802640E+000 1.671739697E+000 1.671676636E+000 1.671643496E+000
 1.624673367E+000 1.625761390E+000 1.626849532E+000 1.627423406E+000 1.535333037E+000
 1.538603067E+000 1.541873097E+000 1.543598056E+000 1.445992589E+000 1.451444626E+000
 1.456896663E+000 1.459772706E+000 1.671610236E+000 1.671547174E+000 1.671484232E+000
 1.671450973E+000 1.627997398E+000 1.629085541E+000 1.630173564E+000 1.630747557E+000
 1.545323133E+000 1.548593163E+000 1.551863194E+000 1.553588271E+000 1.462648869E+000
 1.468100905E+000 1.473552942E+000 1.476428986E+000 1.939033389E+000 1.922319174E+000
 1.905605078E+000 1.896788001E+000 1.892889738E+000 1.879050851E+000 1.865211964E+000
 1.857911587E+000 1.805418015E+000 1.797029495E+000 1.788640857E+000 1.784215689E+000
 1.717946172E+000 1.715008020E+000 1.712069869E+000 1.710519910E+000 1.887970805E+000
 1.871256709E+000 1.854542613E+000 1.845725536E+000 1.850611210E+000 1.836772203E+000
 1.822933316E+000 1.815632939E+000 1.779790521E+000 1.771402001E+000 1.763013482E+000
 1.758588195E+000 1.708969951E+000 1.706031680E+000 1.703093529E+000 1.701543570E+000
 2.160120487E+000 2.129630327E+000 2.099140406E+000 2.083055973E+000 2.072648764E+000
 2.047609091E+000 2.022569418E+000 2.009360313E+000 1.985176921E+000 1.965587616E+000
 1.945998311E+000 1.935664415E+000 2.066971779E+000 2.036481857E+000 2.005991697E+000
 1.989907503E+000 1.996151209E+000 1.971111536E+000 1.946071863E+000 1.932862759E+000
 1.925330520E+000 1.905741215E+000 1.886151910E+000 1.875818014E+000 8.582215905E-001
 8.422127366E-001 8.262038231E-001 8.177587390E-001 8.293170929E-001 8.130701184E-001
 7.968230844E-001 7.882524133E-001 7.745245099E-001 7.578260899E-001 7.411276698E-001
 7.323188186E-001 7.197318673E-001 7.025820613E-001 6.854322553E-001 6.763852835E-001
 8.093136549E-001 7.933048010E-001 7.772959471E-001 7.688508630E-001 7.796816826E-001
 7.634347081E-001 7.471876740E-001 7.386170030E-001 7.235100269E-001 7.068116069E-001
 6.901131868E-001 6.813043356E-001 6.673383117E-001 6.501884460E-001 6.330386400E-001
 6.239916682E-001 1.025615811E+000 1.010985970E+000 9.963561893E-001 9.886386395E-001
 9.967112541E-001 9.818433523E-001 9.669754505E-001 9.591322541E-001 9.419186711E-001
 9.265993237E-001 9.112800360E-001 9.031987190E-001 8.871260881E-001 8.713553548E-001
 8.555846214E-001 8.472651243E-001 9.809210300E-001 9.662913084E-001 9.516615272E-001
 9.439439178E-001 9.512890577E-001 9.364211559E-001 9.215532541E-001 9.137100577E-001
 8.951173425E-001 8.797980547E-001 8.644787073E-001 8.563973904E-001 8.389456868E-001
 8.231749535E-001 8.074042201E-001 7.990847230E-001 1.193009973E+000 1.179759264E+000
 1.166508555E+000 1.159518480E+000 1.164105415E+000 1.150616646E+000 1.137127876E+000
 1.130012155E+000 1.109312892E+000 1.095372558E+000 1.081432343E+000 1.074078560E+000
 1.054520249E+000 1.040128589E+000 1.025736928E+000 1.018144965E+000 1.152528405E+000
 1.139277697E+000 1.126027107E+000 1.119037032E+000 1.122896433E+000 1.109407663E+000
 1.095918775E+000 1.088803172E+000 1.066724777E+000 1.052784562E+000 1.038844228E+000
 1.031490445E+000 1.010553002E+000 9.961614013E-001 9.817697406E-001 9.741777778E-001
 1.432230473E+000 1.425605178E+000 1.418979764E+000 1.415484786E+000 1.390923500E+000
 1.383154154E+000 1.375384808E+000 1.371286273E+000 1.312620163E+000 1.302682161E+000
 1.292744160E+000 1.287501574E+000 1.234316945E+000 1.222210288E+000 1.210103512E+000
 1.203716993E+000 1.411989689E+000 1.405364394E+000 1.398738980E+000 1.395244002E+000
 1.367187738E+000 1.359418392E+000 1.351649046E+000 1.347550511E+000 1.282259107E+000
 1.272321105E+000 1.262383103E+000 1.257140517E+000 1.197330475E+000 1.185223818E+000
 1.173117161E+000 1.166730523E+000 1.671450973E+000 1.671450973E+000 1.671450973E+000
 1.671450973E+000 1.630144000E+000 1.629000068E+000 1.627856016E+000 1.627252460E+000
 1.551840782E+000 1.548528075E+000 1.545215368E+000 1.543467879E+000 1.473537445E+000
 1.468056083E+000 1.462574840E+000 1.459683299E+000 1.671450973E+000 1.671450973E+000
 1.671450973E+000 1.671450973E+000 1.626649022E+000 1.625504971E+000 1.624360919E+000
 1.623757482E+000 1.541720390E+000 1.538407683E+000 1.535094976E+000 1.533347487E+000
 1.456791759E+000 1.451310396E+000 1.445829034E+000 1.442937493E+000 1.854526043E+000
 1.871208668E+000 1.887891293E+000 1.896691799E+000 1.822913885E+000 1.836715817E+000
 1.850517869E+000 1.857798696E+000 1.762988448E+000 1.771329761E+000 1.779671073E+000
 1.784071326E+000 1.703063130E+000 1.705943823E+000 1.708824396E+000 1.710344076E+000
 1.905492306E+000 1.922174931E+000 1.938857436E+000 1.947657943E+000 1.865079641E+000
 1.878881574E+000 1.892683625E+000 1.899964452E+000 1.788471580E+000 1.796812892E+000
 1.805154204E+000 1.809554458E+000 1.711863637E+000 1.714744329E+000 1.717624903E+000
 1.719144583E+000 2.005988836E+000 2.036473513E+000 2.066958189E+000 2.083039522E+000
 1.946063519E+000 1.971087456E+000 1.996111393E+000 2.009312153E+000 1.886138201E+000
 1.905701399E+000 1.925264716E+000 1.935584784E+000 2.099120855E+000 2.129605532E+000
 2.160089970E+000 2.176171541E+000 2.022512913E+000 2.047536850E+000 2.072560787E+000
 2.085761547E+000 1.945904851E+000 1.965468168E+000 1.985031366E+000 1.995351553E+000
 7.619330287E-001 7.488192916E-001 7.357055545E-001 7.287877202E-001 7.318587303E-001
 7.190474272E-001 7.062361240E-001 6.994778514E-001 6.748484969E-001 6.626105905E-001
 6.503726244E-001 6.439168453E-001 6.178383231E-001 6.061737537E-001 5.945091844E-001
 5.883558393E-001 5.877640247E-001 5.764018893E-001 5.650397539E-001 5.590459704E-001
 7.218698859E-001 7.087560892E-001 6.956423521E-001 6.887245178E-001 6.927195787E-001
 6.799082756E-001 6.670970321E-001 6.603386998E-001 6.374610066E-001 6.252231002E-001
 6.129851341E-001 6.065293550E-001 5.822024345E-001 5.705378652E-001 5.588732958E-001
 5.527199507E-001 5.530521870E-001 5.416900516E-001 5.303279757E-001 5.243341327E-001
 6.818066835E-001 6.686929464E-001 6.555792093E-001 6.486613750E-001 6.535804272E-001
 6.407691836E-001 6.279578805E-001 6.211996078E-001 6.000735164E-001 5.878356099E-001
 5.755976439E-001 5.691418648E-001 5.465666056E-001 5.349020362E-001 5.232374668E-001
 5.170841217E-001 5.183403492E-001 5.069782138E-001 4.956161082E-001 4.896223247E-001
 9.361020923E-001 9.212366939E-001 9.063712955E-001 8.985294104E-001 9.060277343E-001
 8.914648294E-001 8.769018650E-001 8.692196012E-001 8.490175605E-001 8.350279927E-001
 8.210384250E-001 8.136585355E-001 7.920073271E-001 7.785911560E-001 7.651749253E-001
 7.580975294E-001 8.906875849E-001 8.758221865E-001 8.609567881E-001 8.531149030E-001
 8.615372777E-001 8.469743729E-001 8.324114084E-001 8.247290850E-001 8.062787056E-001
 7.922891378E-001 7.782995701E-001 7.709197402E-001 7.510201335E-001 7.376039624E-001
 7.241877317E-001 7.171103358E-001 8.452730775E-001 8.304076791E-001 8.155422807E-001
 8.077003956E-001 8.170468211E-001 8.024838567E-001 7.879209518E-001 7.802386284E-001
 7.635398507E-001 7.495502830E-001 7.355607152E-001 7.281808853E-001 7.100329399E-001
 6.966167688E-001 6.832005382E-001 6.761231422E-001 1.110271096E+000 1.093654037E+000
 1.077037096E+000 1.068271160E+000 1.080196738E+000 1.063882232E+000 1.047567606E+000
 1.038961291E+000 1.023186564E+000 1.007445335E+000 9.917041659E-001 9.834002852E-001
 9.661763906E-001 9.510085583E-001 9.358406663E-001 9.278392792E-001 1.059505224E+000
 1.042888284E+000 1.026271224E+000 1.017505288E+000 1.030354977E+000 1.014040351E+000
 9.977258444E-001 9.891194701E-001 9.750964046E-001 9.593551755E-001 9.436140060E-001
 9.353101254E-001 9.198378325E-001 9.046700001E-001 8.895021677E-001 8.815007210E-001
 1.008739352E+000 9.921223521E-001 9.755053520E-001 9.667394757E-001 9.805131555E-001
 9.641985893E-001 9.478840232E-001 9.392777085E-001 9.270062447E-001 9.112650156E-001
 8.955238461E-001 8.872199655E-001 8.734993339E-001 8.583314419E-001 8.431636095E-001
 8.351621628E-001 1.394498706E+000 1.393085837E+000 1.391672969E+000 1.390927672E+000
 1.345420241E+000 1.341382027E+000 1.337343812E+000 1.335213542E+000 1.252384901E+000
 1.243369937E+000 1.234354973E+000 1.229599357E+000 1.159349561E+000 1.145357847E+000
 1.131366253E+000 1.123985291E+000 1.390182376E+000 1.388769507E+000 1.387356639E+000
 1.386611342E+000 1.333083272E+000 1.329045057E+000 1.325006843E+000 1.322876573E+000
 1.224843740E+000 1.215828896E+000 1.206813931E+000 1.202058315E+000 1.116604328E+000
 1.102612615E+000 1.088621020E+000 1.081240058E+000 1.385866046E+000 1.384453177E+000
 1.383040309E+000 1.382295012E+000 1.320746303E+000 1.316708207E+000 1.312669992E+000
 1.310539722E+000 1.197302699E+000 1.188287735E+000 1.179272771E+000 1.174517274E+000
 1.073859096E+000 1.059867382E+000 1.045875669E+000 1.038494706E+000 1.678726315E+000
 1.692517638E+000 1.706308842E+000 1.713584185E+000 1.629647732E+000 1.640813708E+000
 1.651979685E+000 1.657870054E+000 1.536612511E+000 1.542801738E+000 1.548990965E+000
 1.552255869E+000 1.443577170E+000 1.444789648E+000 1.446002126E+000 1.446641803E+000
 1.720859408E+000 1.734650731E+000 1.748442054E+000 1.755717278E+000 1.663760424E+000
 1.674926281E+000 1.686092257E+000 1.691982627E+000 1.555520892E+000 1.561710119E+000
 1.567899346E+000 1.571164370E+000 1.447281361E+000 1.448493958E+000 1.449706435E+000
 1.450345993E+000 1.762992620E+000 1.776783943E+000 1.790575266E+000 1.797850490E+000
 1.697872996E+000 1.709038973E+000 1.720204830E+000 1.726095200E+000 1.574429274E+000
 1.580618501E+000 1.586807728E+000 1.590072751E+000 1.450985670E+000 1.452198148E+000
 1.453410625E+000 1.454050303E+000 1.967059970E+000 2.003839016E+000 2.040618181E+000
 2.060020208E+000 1.917272449E+000 1.950082183E+000 1.982892036E+000 2.000200033E+000
 1.822893143E+000 1.848178387E+000 1.873463631E+000 1.886802197E+000 1.728513718E+000
 1.746274471E+000 1.764035106E+000 1.773404360E+000 2.079421997E+000 2.116201162E+000
 2.152980328E+000 2.172382355E+000 2.017508030E+000 2.050317764E+000 2.083127499E+000
 2.100435495E+000 1.900140762E+000 1.925426006E+000 1.950711250E+000 1.964049816E+000
 1.782773614E+000 1.800534248E+000 1.818295002E+000 1.827664256E+000 2.191784382E+000
 2.228563547E+000 2.265342712E+000 2.284744501E+000 2.117743492E+000 2.150553226E+000
 2.183362961E+000 2.200670958E+000 1.977388501E+000 2.002673626E+000 2.027958870E+000
 2.041297436E+000 1.837033391E+000 1.854794145E+000 1.872554779E+000 1.881924033E+000
 2.255393505E+000 2.315160513E+000 2.374927521E+000 2.406456232E+000 2.205606222E+000
 2.261403799E+000 2.317201376E+000 2.346636057E+000 2.111226797E+000 2.159499884E+000