TITLE     = "Viper 2D flow field data"
VARIABLES = "X"
"Y"
"U"
"V"
"P"
"vort_xy_plane"
ZONE T="Data zone"
 STRANDID=0, SOLUTIONTIME=0
 Nodes=8240, Elements=8064, ZONETYPE=FEQuadrilateral
 DATAPACKING=BLOCK
 DT=(SINGLE SINGLE SINGLE SINGLE SINGLE SINGLE )
 6.293805242E-001 6.223080754E-001 6.089011431E-001 5.954942703E-001 5.884218216E-001
 6.190227270E-001 6.120237112E-001 5.987560153E-001 5.854883194E-001 5.784893036E-001
 5.993880630E-001 5.925282240E-001 5.795243979E-001 5.665206313E-001 5.596607924E-001
 5.797533989E-001 5.730327368E-001 5.602928400E-001 5.475528836E-001 5.408322811E-001
 5.693956017E-001 5.627484322E-001 5.501476526E-001 5.375469327E-001 5.308997631E-001
 5.813493133E-001 5.679424405E-001 5.545355678E-001 5.474630594E-001 5.714902282E-001
 5.582225323E-001 5.449548364E-001 5.379558206E-001 5.528009534E-001 5.397971272E-001
 5.267933011E-001 5.199334621E-001 5.341116190E-001 5.213716626E-001 5.086317658E-001
 5.019111037E-001 5.242525339E-001 5.116518140E-001 4.990510941E-001 4.924038649E-001
 6.893654466E-001 6.818676591E-001 6.676546335E-001 6.534416080E-001 6.459438205E-001
 6.790076494E-001 6.715833545E-001 6.575095057E-001 6.434356570E-001 6.360113025E-001
 6.593729854E-001 6.520878673E-001 6.382778883E-001 6.244679093E-001 6.171827912E-001
 6.397383213E-001 6.325923800E-001 6.190463305E-001 6.055002213E-001 5.983542800E-001
 6.384460926E-001 6.242330670E-001 6.100199819E-001 6.025222540E-001 6.285870075E-001
 6.145131588E-001 6.004393101E-001 5.930150151E-001 6.098977327E-001 5.960877538E-001
 5.822777748E-001 5.749926567E-001 5.912083983E-001 5.776622891E-001 5.641162395E-001
 5.569702983E-001 -8.863269687E-001 -8.695808053E-001 -8.378360271E-001 -8.060913086E-001
 -7.893451452E-001 -9.146686196E-001 -8.986908793E-001 -8.684028387E-001 -8.381147981E-001
 -8.221370578E-001 -9.683942795E-001 -9.538732767E-001 -9.263466001E-001 -8.988199234E-001
 -8.842989206E-001 -1.022119999E+000 -1.009055614E+000 -9.842903614E-001 -9.595251083E-001
 -9.464607835E-001 -1.050461650E+000 -1.038165689E+000 -1.014857173E+000 -9.915485978E-001
 -9.792526960E-001 -7.725989819E-001 -7.408542037E-001 -7.091094255E-001 -6.923632622E-001
 -8.061593771E-001 -7.758712769E-001 -7.455832362E-001 -7.296054959E-001 -8.697779179E-001
 -8.422512412E-001 -8.147245646E-001 -8.002035618E-001 -9.333964586E-001 -9.086312056E-001
 -8.838658929E-001 -8.708015680E-001 -9.669568539E-001 -9.436482787E-001 -9.203397036E-001
 -9.080438018E-001 -1.078803301E+000 -1.067275882E+000 -1.045423985E+000 -1.023572087E+000
 -1.012044668E+000 -1.132528901E+000 -1.122458220E+000 -1.103367686E+000 -1.084277272E+000
 -1.074206471E+000 -1.186254621E+000 -1.177640557E+000 -1.161311507E+000 -1.144982338E+000
 -1.136368394E+000 -1.214596272E+000 -1.206750631E+000 -1.191878319E+000 -1.177005887E+000
 -1.169160366E+000 -1.000517249E+000 -9.786653519E-001 -9.568135142E-001 -9.452860951E-001
 -1.064135790E+000 -1.045045257E+000 -1.025954843E+000 -1.015884161E+000 -1.127754331E+000
 -1.111425281E+000 -1.095096111E+000 -1.086482167E+000 -1.161314726E+000 -1.146442294E+000
 -1.131569982E+000 -1.123724341E+000 -1.242937922E+000 -1.235860705E+000 -1.222445011E+000
 -1.209029317E+000 -1.201952219E+000 -1.296663523E+000 -1.291043162E+000 -1.280388832E+000
 -1.269734502E+000 -1.264114141E+000 -1.350389242E+000 -1.346225500E+000 -1.338332534E+000
 -1.330439687E+000 -1.326275945E+000 -1.378730893E+000 -1.375335574E+000 -1.368899345E+000
 -1.362463117E+000 -1.359067917E+000 -1.194875121E+000 -1.181459427E+000 -1.168043733E+000
 -1.160966635E+000 -1.258493662E+000 -1.247839451E+000 -1.237185121E+000 -1.231564641E+000
 -1.322112203E+000 -1.314219356E+000 -1.306326389E+000 -1.302162766E+000 -1.355672598E+000
 -1.349236488E+000 -1.342800260E+000 -1.339404941E+000 -1.422093630E+000 -1.420391321E+000
 -1.417164564E+000 -1.413937688E+000 -1.412235498E+000 -1.504293799E+000 -1.505800962E+000
 -1.508658051E+000 -1.511515141E+000 -1.513022304E+000 -1.586494088E+000 -1.591210723E+000
 -1.600151658E+000 -1.609092593E+000 -1.613809109E+000 -1.629856825E+000 -1.636266470E+000
 -1.648416758E+000 -1.660567045E+000 -1.666976690E+000 -1.410533309E+000 -1.407306433E+000
 -1.404079676E+000 -1.402377367E+000 -1.514529467E+000 -1.517386556E+000 -1.520243645E+000
 -1.521750808E+000 -1.618525743E+000 -1.627466679E+000 -1.636407614E+000 -1.641124129E+000
 -1.673386335E+000 -1.685536623E+000 -1.697687030E+000 -1.704096556E+000 -1.673219562E+000
 -1.681322217E+000 -1.696681976E+000 -1.712041616E+000 -1.720144272E+000 -1.755419850E+000
 -1.766731858E+000 -1.788175464E+000 -1.809619069E+000 -1.820931077E+000 -1.837620139E+000
 -1.852141500E+000 -1.879668951E+000 -1.907196522E+000 -1.921717882E+000 -1.880982757E+000
 -1.897197247E+000 -1.927934170E+000 -1.958670974E+000 -1.974885464E+000 -1.728246927E+000
 -1.743606687E+000 -1.758966446E+000 -1.767068982E+000 -1.832243204E+000 -1.853686690E+000
 -1.875130296E+000 -1.886442423E+000 -1.936239362E+000 -1.963766813E+000 -1.991294265E+000
 -2.005815744E+000 -1.991099954E+000 -2.021836758E+000 -2.052573681E+000 -2.068788290E+000
 -2.577299833E+000 -2.525289297E+000 -2.426696301E+000 -2.328103065E+000 -2.276092529E+000
 -2.642418861E+000 -2.586186171E+000 -2.479589224E+000 -2.372992039E+000 -2.316759348E+000
 -2.765861511E+000 -2.701624870E+000 -2.579855442E+000 -2.458085775E+000 -2.393849134E+000
 -2.889304161E+000 -2.817063808E+000 -2.680121660E+000 -2.543179274E+000 -2.470938921E+000
 -2.954423189E+000 -2.877960443E+000 -2.733014584E+000 -2.588068485E+000 -2.511605740E+000
 -2.224082232E+000 -2.125488997E+000 -2.026896000E+000 -2.260526657E+000 -2.153929710E+000
 -2.047332525E+000 -2.329612732E+000 -2.207843065E+000 -2.086073399E+000 -2.398698568E+000
 -2.261756420E+000 -2.124814272E+000 -2.435142994E+000 -2.290196896E+000 -2.145250797E+000
 -2.200176239E+000 -2.172618151E+000 -2.120377779E+000 -2.068137646E+000 -2.040579557E+000
 -2.265295267E+000 -2.233515024E+000 -2.173270941E+000 -2.113026619E+000 -2.081246376E+000
 -2.388737917E+000 -2.348953724E+000 -2.273536921E+000 -2.198120356E+000 -2.158336163E+000
 -2.512180567E+000 -2.464392424E+000 -2.373803139E+000 -2.283213854E+000 -2.235425711E+000
 -2.013021469E+000 -1.960781217E+000 -1.908540845E+000 -2.049465895E+000 -1.989221811E+000
 -1.928977609E+000 -2.118551731E+000 -2.043135166E+000 -1.967718363E+000 -2.187637806E+000
 -2.097048521E+000 -2.006459236E+000 -7.476170063E-001 -7.595927715E-001 -7.822945118E-001
 -8.049962521E-001 -8.169720173E-001 -7.862060070E-001 -7.972970605E-001 -8.183216453E-001
 -8.393462896E-001 -8.504373431E-001 -8.593569994E-001 -8.687708974E-001 -8.866162896E-001
 -9.044617414E-001 -9.138756394E-001 -9.325079322E-001 -9.402447343E-001 -9.549109340E-001
 -9.695771933E-001 -9.773139358E-001 -9.710969329E-001 -9.779490232E-001 -9.909381270E-001
 -1.003927231E+000 -1.010779262E+000 -8.289477229E-001 -8.516494632E-001 -8.743512630E-001
 -8.615283370E-001 -8.825529814E-001 -9.035776258E-001 -9.232895374E-001 -9.411349893E-001
 -9.589803815E-001 -9.850507379E-001 -9.997169375E-001 -1.014383197E+000 -1.017631292E+000
 -1.030620456E+000 -1.043609500E+000 -1.009685874E+000 -1.015653253E+000 -1.026965261E+000
 -1.038277268E+000 -1.044244647E+000 -1.082836866E+000 -1.087127090E+000 -1.095259905E+000
 -1.103392720E+000 -1.107682943E+000 -1.155987859E+000 -1.158601046E+000 -1.163554549E+000
 -1.168508053E+000 -1.171121240E+000 -1.194576859E+000 -1.196305275E+000 -1.199581742E+000
 -1.202858090E+000 -1.204586506E+000 -1.050211906E+000 -1.061523914E+000 -1.072835922E+000
 -1.111973166E+000 -1.120105863E+000 -1.128238678E+000 -1.173734307E+000 -1.178687930E+000
 -1.183641434E+000 -1.206314921E+000 -1.209591389E+000 -1.212867856E+000 -1.233165860E+000
 -1.234009504E+000 -1.235608816E+000 -1.237208128E+000 -1.238051891E+000 -1.306316853E+000
 -1.305483341E+000 -1.303903461E+000 -1.302323580E+000 -1.301490188E+000 -1.379467845E+000
 -1.376957297E+000 -1.372198105E+000 -1.367439032E+000 -1.364928484E+000 -1.418056726E+000
 -1.414661527E+000 -1.408225298E+000 -1.401789069E+000 -1.398393869E+000 -1.238895535E+000
 -1.240494847E+000 -1.242094159E+000 -1.300656796E+000 -1.299076915E+000 -1.297496915E+000
 -1.362417936E+000 -1.357658863E+000 -1.352899790E+000 -1.394998550E+000 -1.388562322E+000
 -1.382126093E+000 -1.485582352E+000 -1.480100870E+000 -1.469710112E+000 -1.459319353E+000
 -1.453837991E+000 -1.613586664E+000 -1.604150653E+000 -1.586263418E+000 -1.568376184E+000
 -1.558940291E+000 -1.741590977E+000 -1.728200436E+000 -1.702816725E+000 -1.677433133E+000
 -1.664042592E+000 -1.809116483E+000 -1.793639779E+000 -1.764301538E+000 -1.734963298E+000
 -1.719486713E+000 -1.448356509E+000 -1.437965751E+000 -1.427574992E+000 -1.549504280E+000
 -1.531617045E+000 -1.513729811E+000 -1.650652051E+000 -1.625268340E+000 -1.599884629E+000
 -1.704010010E+000 -1.674671769E+000 -1.645333529E+000 -1.876641989E+000 -1.859079242E+000
 -1.825786352E+000 -1.792493582E+000 -1.774930835E+000 -2.004646301E+000 -1.983129025E+000
 -1.942339778E+000 -1.901550412E+000 -1.880033135E+000 -2.132650614E+000 -2.107178688E+000
 -2.058892965E+000 -2.010607243E+000 -1.985135436E+000 -1.757367969E+000 -1.724075198E+000
 -1.690782309E+000 -1.858515739E+000 -1.817726493E+000 -1.776937246E+000 -1.959663510E+000
 -1.911377788E+000 -1.863092065E+000 2.350284100E+000 2.325693369E+000 2.279078245E+000
 2.232463121E+000 2.207872391E+000 2.369577885E+000 2.344456673E+000 2.296835899E+000
 2.249214888E+000 2.224093914E+000 2.406151772E+000 2.380024910E+000 2.330497742E+000
 2.280970573E+000 2.254843712E+000 2.442725658E+000 2.415593147E+000 2.364159584E+000
 2.312726021E+000 2.285593510E+000 2.462019444E+000 2.434356451E+000 2.381917000E+000
 2.329477787E+000 2.301814795E+000 2.183281898E+000 2.136666775E+000 2.090051651E+000
 2.065460920E+000 2.198972702E+000 2.151351929E+000 2.103730917E+000 2.078609705E+000
 2.228716850E+000 2.179189682E+000 2.129662275E+000 2.103535414E+000 2.258460999E+000
 2.207027435E+000 2.155593634E+000 2.128461123E+000 2.274151802E+000 2.221712351E+000
 2.169273138E+000 2.141610146E+000 2.238548756E+000 2.217030525E+000 2.176239491E+000
 2.135448456E+000 2.113930225E+000 2.257842541E+000 2.235793829E+000 2.193997145E+000
 2.152200460E+000 2.130151510E+000 2.294416428E+000 2.271362066E+000 2.227658987E+000
 2.183955908E+000 2.160901308E+000 2.330990553E+000 2.306930304E+000 2.261320829E+000
 2.215711355E+000 2.191651106E+000 2.092411995E+000 2.051620960E+000 2.010829926E+000
 1.989311695E+000 2.108102798E+000 2.066306114E+000 2.024509430E+000 2.002460480E+000
 2.137846947E+000 2.094143867E+000 2.050440788E+000 2.027386189E+000 2.167591095E+000
 2.121981621E+000 2.076372147E+000 2.052311897E+000 5.918415189E-001 6.000726819E-001
 6.156761050E-001 6.312794685E-001 6.395106316E-001 5.667486787E-001 5.747797489E-001
 5.900038481E-001 6.052278876E-001 6.132589579E-001 5.191815495E-001 5.268333554E-001
 5.413383842E-001 5.558433533E-001 5.634951591E-001 4.716144800E-001 4.788869321E-001
 4.926728904E-001 5.064588785E-001 5.137313008E-001 4.465216100E-001 4.535939693E-001
 4.670006335E-001 4.804072678E-001 4.874796271E-001 6.477417946E-001 6.633452177E-001
 6.789485812E-001 6.871797442E-001 6.212900281E-001 6.365141273E-001 6.517381668E-001
 6.597692370E-001 5.711469054E-001 5.856519341E-001 6.001569033E-001 6.078087091E-001
 5.210037231E-001 5.347896814E-001 5.485756993E-001 5.558481216E-001 4.945519567E-001
 5.079585910E-001 5.213652849E-001 5.284376144E-001 6.954109073E-001 7.110142708E-001
 7.266176939E-001 7.348488569E-001 6.678003073E-001 6.830244064E-001 6.982484460E-001
 7.062795162E-001 6.154604554E-001 6.299654841E-001 6.444704533E-001 6.521222591E-001
 5.631205440E-001 5.769065619E-001 5.906925201E-001 5.979649425E-001 5.355099440E-001
 5.489166379E-001 5.623232722E-001 7.371614575E-001 7.465514541E-001 7.643515468E-001
 7.821516395E-001 7.915416360E-001 7.120686173E-001 7.212585211E-001 7.386792898E-001
 7.561000586E-001 7.652899623E-001 6.645014882E-001 6.733120680E-001 6.900138259E-001
 7.067155838E-001 7.155261636E-001 6.169343591E-001 6.253656745E-001 6.413483620E-001
 6.573310494E-001 6.657623053E-001 8.009316325E-001 8.187317848E-001 8.365318775E-001
 8.459218740E-001 7.744798660E-001 7.919006944E-001 8.093214631E-001 8.185113668E-001
 7.243367434E-001 7.410385013E-001 7.577401996E-001 7.665507793E-001 6.741935611E-001
 6.901763082E-001 7.061589956E-001 7.145902514E-001 8.553118706E-001 8.731119633E-001
 8.909120560E-001 9.003020525E-001 8.277012706E-001 8.451220393E-001 8.625428677E-001
 8.717327714E-001 7.753614187E-001 7.920631170E-001 8.087648749E-001 8.175754547E-001
 7.230215073E-001 7.390041947E-001 7.549868822E-001 7.634181976E-001 8.824813366E-001
 8.930301666E-001 9.130269885E-001 9.330238700E-001 9.435727000E-001 8.573884964E-001
 8.677372336E-001 8.873547316E-001 9.069722891E-001 9.173210263E-001 8.098214269E-001
 8.197908401E-001 8.386892676E-001 8.575877547E-001 8.675571680E-001 7.622542977E-001
 7.718443871E-001 7.900238037E-001 8.082032204E-001 8.177933097E-001 9.541215301E-001
 9.741183519E-001 9.941151738E-001 1.004663944E+000 9.276697040E-001 9.472872615E-001
 9.669047594E-001 9.772534966E-001 8.775265813E-001 8.964250684E-001 9.153234959E-001
 9.252929091E-001 8.273834586E-001 8.455628753E-001 8.637422919E-001 8.733323812E-001
 1.015212774E+000 1.035209656E+000 1.055206537E+000 1.065755367E+000 9.876022339E-001
 1.007219791E+000 1.026837230E+000 1.037186027E+000 9.352623224E-001 9.541608095E-001
 9.730592966E-001 9.830287099E-001 8.829224706E-001 9.011018872E-001 9.192813039E-001
 9.288713932E-001 1.261451006E+000 1.265680552E+000 1.273698092E+000 1.281715751E+000
 1.285945296E+000 1.196013093E+000 1.201333761E+000 1.211419940E+000 1.221506000E+000
 1.226826787E+000 1.071966171E+000 1.079355359E+000 1.093362570E+000 1.107369781E+000
 1.114758968E+000 9.479192495E-001 9.573768973E-001 9.753052592E-001 9.932335615E-001
 1.002691269E+000 1.290174842E+000 1.298192382E+000 1.306210041E+000 1.310439587E+000
 1.232147455E+000 1.242233515E+000 1.252319694E+000 1.257640362E+000 1.122148156E+000
 1.136155367E+000 1.150162578E+000 1.157551765E+000 1.012148857E+000 1.030077219E+000
 1.048005581E+000 1.057463288E+000 1.314669132E+000 1.322686672E+000 1.330704331E+000
 1.334933877E+000 1.262961030E+000 1.273047209E+000 1.283133268E+000 1.288453937E+000
 1.164940953E+000 1.178948164E+000 1.192955375E+000 1.200344563E+000 1.066920877E+000
 1.084849238E+000 1.102777600E+000 1.112235188E+000 1.640420675E+000 1.638330817E+000
 1.634369254E+000 1.630407691E+000 1.628317952E+000 1.574982762E+000 1.573984146E+000
 1.572091103E+000 1.570197940E+000 1.569199324E+000 1.450935841E+000 1.452005625E+000
 1.454033732E+000 1.456061721E+000 1.457131624E+000 1.326888919E+000 1.330027223E+000
 1.335976362E+000 1.341925502E+000 1.345063806E+000 1.626228094E+000 1.622266531E+000
 1.618304968E+000 1.616215229E+000 1.568200707E+000 1.566307664E+000 1.564414620E+000
 1.563415885E+000 1.458201408E+000 1.460229516E+000 1.462257504E+000 1.463327408E+000
 1.348202229E+000 1.354151368E+000 1.360100508E+000 1.363238811E+000 1.614125371E+000
 1.610163808E+000 1.606202245E+000 1.604112387E+000 1.562417269E+000 1.560524225E+000
 1.558631182E+000 1.557632565E+000 1.464397192E+000 1.466425300E+000 1.468453288E+000
 1.469523191E+000 1.366377115E+000 1.372326255E+000 1.378275514E+000 1.381413817E+000
 2.085297585E+000 2.073070049E+000 2.049891472E+000 2.026712656E+000 2.014485359E+000
 2.008479118E+000 1.998002291E+000 1.978141904E+000 1.958281517E+000 1.947804689E+000
 1.862859011E+000 1.855700493E+000 1.842130423E+000 1.828560233E+000 1.821401715E+000
 1.717238903E+000 1.713398695E+000 1.706118822E+000 1.698838949E+000 1.694998622E+000
 2.002258062E+000 1.979079366E+000 1.955900669E+000 1.943673372E+000 1.937327743E+000
 1.917467356E+000 1.897606969E+000 1.887130141E+000 1.814243078E+000 1.800673008E+000
 1.787102818E+000 1.779944301E+000 1.691158414E+000 1.683878541E+000 1.676598668E+000
 1.672758460E+000 1.931445956E+000 1.908267260E+000 1.885088682E+000 1.872861266E+000
 1.876653194E+000 1.856792808E+000 1.836932421E+000 1.826455593E+000 1.772785664E+000
 1.759215593E+000 1.745645404E+000 1.738486886E+000 1.668918133E+000 1.661638260E+000
 1.654358506E+000 1.650518179E+000 2.530174255E+000 2.507809401E+000 2.465413570E+000
 2.423017740E+000 2.400652885E+000 2.453356028E+000 2.432741642E+000 2.393664122E+000
 2.354586601E+000 2.333972216E+000 2.307735920E+000 2.290439844E+000 2.257652521E+000
 2.224865198E+000 2.207569122E+000 2.162115812E+000 2.148138046E+000 2.121640921E+000
 2.095144033E+000 2.081166267E+000 2.378288031E+000 2.335892200E+000 2.293496370E+000
 2.271131516E+000 2.313357830E+000 2.274280310E+000 2.235202789E+000 2.214588404E+000
 2.190273046E+000 2.157485723E+000 2.124698639E+000 2.107402325E+000 2.067188263E+000
 2.040691376E+000 2.014194489E+000 2.000216484E+000 2.248766661E+000 2.206370831E+000
 2.163975000E+000 2.193973780E+000 2.154896259E+000 2.115818739E+000 2.095204353E+000
 2.090106249E+000 2.057319164E+000 2.024531841E+000 2.007235765E+000 1.986238718E+000
 1.959741831E+000 1.933244824E+000 1.919266939E+000 7.450928092E-001 7.645116448E-001
 7.839305401E-001 7.941744328E-001 7.165431380E-001 7.359992266E-001 7.554553747E-001
 7.657189369E-001 6.624230742E-001 6.819498539E-001 7.014766335E-001 7.117775083E-001
 6.083030701E-001 6.279004812E-001 6.474978924E-001 6.578360200E-001 8.044183850E-001
 8.238372803E-001 8.432561159E-001 8.535000682E-001 7.759825587E-001 7.954387069E-001
 8.148947954E-001 8.251584172E-001 7.220783234E-001 7.416051030E-001 7.611318827E-001
 7.714327574E-001 6.681741476E-001 6.877715588E-001 7.073689699E-001 7.177070975E-001
 9.104321599E-001 9.296352267E-001 9.488382936E-001 9.589684010E-001 8.818824887E-001
 9.011228085E-001 9.203631282E-001 9.305129051E-001 8.277624846E-001 8.470734358E-001
 8.663843870E-001 8.765714169E-001 7.736424804E-001 7.930240631E-001 8.124056458E-001
 8.226299286E-001 9.690984488E-001 9.883015156E-001 1.007504582E+000 1.017634630E+000
 9.406626225E-001 9.599029422E-001 9.791432619E-001 9.892930388E-001 8.867584467E-001
 9.060693979E-001 9.253803492E-001 9.355673790E-001 8.328542113E-001 8.522357941E-001
 8.716174364E-001 8.818417192E-001 1.075771570E+000 1.094758749E+000 1.113746047E+000
 1.123762250E+000 1.047221899E+000 1.066246390E+000 1.085270882E+000 1.095306873E+000
 9.931018949E-001 1.012197018E+000 1.031292200E+000 1.041365385E+000 9.389818311E-001
 9.581476450E-001 9.773134589E-001 9.874238968E-001 1.133778572E+000 1.152765751E+000
 1.171753049E+000 1.181769252E+000 1.105342746E+000 1.124367237E+000 1.143391728E+000
 1.153427601E+000 1.051438570E+000 1.070533633E+000 1.089628816E+000 1.099702001E+000
 9.975343347E-001 1.016700149E+000 1.035865903E+000 1.045976281E+000 1.341752768E+000
 1.354678750E+000 1.367604852E+000 1.374423742E+000 1.295824885E+000 1.309797645E+000
 1.323770285E+000 1.331141233E+000 1.208762169E+000 1.224718809E+000 1.240675449E+000
 1.249093056E+000 1.121699333E+000 1.139639974E+000 1.157580614E+000 1.167044759E+000
 1.381242633E+000 1.394168615E+000 1.407094717E+000 1.413913608E+000 1.338512182E+000
 1.352484822E+000 1.366457582E+000 1.373828530E+000 1.257510543E+000 1.273467183E+000
 1.289423943E+000 1.297841430E+000 1.176508904E+000 1.194449544E+000 1.212390304E+000
 1.221854448E+000 1.607733846E+000 1.614598751E+000 1.621463776E+000 1.625085115E+000
 1.561806083E+000 1.569717646E+000 1.577629089E+000 1.581802726E+000 1.474743247E+000
 1.484638810E+000 1.494534373E+000 1.499754429E+000 1.387680531E+000 1.399559975E+000
 1.411439538E+000 1.417706251E+000 1.628706574E+000 1.635571480E+000 1.642436504E+000
 1.646057844E+000 1.585976243E+000 1.593887687E+000 1.601799250E+000 1.605972767E+000
 1.504974604E+000 1.514870048E+000 1.524765611E+000 1.529985785E+000 1.423972964E+000
 1.435852408E+000 1.447731972E+000 1.453998685E+000 1.868097544E+000 1.859067202E+000
 1.850036740E+000 1.845273018E+000 1.823139668E+000 1.816854000E+000 1.810568333E+000
 1.807252526E+000 1.737915754E+000 1.736832976E+000 1.735750318E+000 1.735179067E+000
 1.652691722E+000 1.656811953E+000 1.660932183E+000 1.663105726E+000 1.840509295E+000
 1.831478953E+000 1.822448492E+000 1.817684770E+000 1.803936601E+000 1.797650933E+000
 1.791365266E+000 1.788049459E+000 1.734607935E+000 1.733525276E+000 1.732442498E+000
 1.731871367E+000 1.665279269E+000 1.669399500E+000 1.673519731E+000 1.675693274E+000
 2.083503485E+000 2.061322451E+000 2.039141417E+000 2.027440310E+000 1.998279333E+000
 1.981301308E+000 1.964323282E+000 1.955366969E+000 1.913055301E+000 1.901280284E+000
 1.889505267E+000 1.883293509E+000 2.015739441E+000 1.993558288E+000 1.971377373E+000
 1.959676266E+000 1.946410656E+000 1.929432631E+000 1.912454605E+000 1.903498173E+000
 1.877081871E+000 1.865306854E+000 1.853531837E+000 1.847320080E+000 8.472470045E-001
 8.353935480E-001 8.235400319E-001 8.172870278E-001 8.186904788E-001 8.064295053E-001
 7.941685915E-001 7.877006531E-001 7.645573616E-001 7.515240908E-001 7.384908199E-001
 7.316154242E-001 7.104242444E-001 6.966186166E-001 6.828130484E-001 6.755301952E-001
 8.110340238E-001 7.991805077E-001 7.873269916E-001 7.810739875E-001 7.812327147E-001
 7.689718008E-001 7.567108274E-001 7.502428889E-001 7.247400284E-001 7.117067575E-001
 6.986734867E-001 6.917981505E-001 6.682474017E-001 6.544417739E-001 6.406361461E-001
 6.333533525E-001 1.012626410E+000 1.003132463E+000 9.936385155E-001 9.886302352E-001
 9.840698242E-001 9.741684198E-001 9.642670751E-001 9.590438604E-001 9.299367070E-001
 9.192630053E-001 9.085892439E-001 9.029586315E-001 8.758035898E-001 8.643575311E-001
 8.529114723E-001 8.468734026E-001 9.836218953E-001 9.741279483E-001 9.646340013E-001
 9.596257210E-001 9.538205862E-001 9.439192414E-001 9.340178370E-001 9.287946224E-001
 8.973279595E-001 8.866542578E-001 8.759804964E-001 8.703498840E-001 8.408353329E-001
 8.293892145E-001 8.179431558E-001 8.119050860E-001 1.178005695E+000 1.170871377E+000
 1.163736939E+000 1.159973383E+000 1.149449110E+000 1.141907334E+000 1.134365559E+000
 1.130387068E+000 1.095316052E+000 1.087001920E+000 1.078687787E+000 1.074301839E+000
 1.041182995E+000 1.032096505E+000 1.023009896E+000 1.018216610E+000 1.156209826E+000
 1.149075389E+000 1.141941071E+000 1.138177514E+000 1.126408577E+000 1.118866682E+000
 1.111324906E+000 1.107346416E+000 1.069915891E+000 1.061601758E+000 1.053287506E+000
 1.048901558E+000 1.013423204E+000 1.004336715E+000 9.952501655E-001 9.904568195E-001
 1.413858056E+000 1.413752794E+000 1.413647532E+000 1.413591981E+000 1.373132706E+000
 1.371813655E+000 1.370494604E+000 1.369798899E+000 1.295931935E+000 1.292312026E+000
 1.288692236E+000 1.286782622E+000 1.218731046E+000 1.212810397E+000 1.206889749E+000
 1.203766465E+000 1.413536429E+000 1.413431168E+000 1.413325906E+000 1.413270354E+000
 1.369103074E+000 1.367784023E+000 1.366464972E+000 1.365769148E+000 1.284873128E+000
 1.281253338E+000 1.277633429E+000 1.275723934E+000 1.200643182E+000 1.194722533E+000
 1.188801885E+000 1.185678601E+000 1.649710417E+000 1.656634212E+000 1.663558006E+000
 1.667210579E+000 1.608985066E+000 1.614695072E+000 1.620405197E+000 1.623417377E+000
 1.531784177E+000 1.535193443E+000 1.538602829E+000 1.540401220E+000 1.454583406E+000
 1.455691934E+000 1.456800342E+000 1.457385063E+000 1.670863032E+000 1.677786827E+000
 1.684710622E+000 1.688363194E+000 1.626429677E+000 1.632139683E+000 1.637849808E+000
 1.640861988E+000 1.542199731E+000 1.545608997E+000 1.549018264E+000 1.550816774E+000
 1.457969785E+000 1.459078312E+000 1.460186720E+000 1.460771441E+000 1.830270171E+000
 1.854127645E+000 1.877985001E+000 1.890570402E+000 1.799092293E+000 1.820025802E+000
 1.840959191E+000 1.852002144E+000 1.739990234E+000 1.755380869E+000 1.770771503E+000
 1.778890491E+000 1.680888176E+000 1.690736055E+000 1.700583816E+000 1.705778837E+000
 1.903155804E+000 1.927013159E+000 1.950870633E+000 1.963456035E+000 1.863045096E+000
 1.883978486E+000 1.904911995E+000 1.915954828E+000 1.787009358E+000 1.802399993E+000
 1.817790627E+000 1.825909615E+000 1.710973740E+000 1.720821500E+000 1.730669379E+000
 1.735864282E+000 1.979652166E+000 2.017519236E+000 2.055386305E+000 2.075361967E+000
 1.920550108E+000 1.952874303E+000 1.985198498E+000 2.002250433E+000 1.861448050E+000
 1.888229370E+000 1.915010810E+000 1.929138660E+000 2.095337868E+000 2.133204937E+000
 2.171072006E+000 2.191047668E+000 2.019302130E+000 2.051626444E+000 2.083950520E+000
 2.101002455E+000 1.943266511E+000 1.970047951E+000 1.996829271E+000 2.010957241E+000
 7.755708694E-001 7.651388645E-001 7.547069192E-001 7.492038012E-001 7.448440194E-001
 7.346096635E-001 7.243753076E-001 7.189764380E-001 6.865968704E-001 6.767371297E-001
 6.668774486E-001 6.616761684E-001 6.283497214E-001 6.188645959E-001 6.093795300E-001
 6.043758988E-001 5.976228714E-001 5.883353949E-001 5.790479183E-001 5.741485357E-001
 7.437006831E-001 7.332686782E-001 7.228367329E-001 7.173335552E-001 7.135775685E-001
 7.033432126E-001 6.931088567E-001 6.877099872E-001 6.564748883E-001 6.466152072E-001
 6.367554665E-001 6.315541863E-001 5.993722677E-001 5.898871422E-001 5.804020762E-001
 5.753984451E-001 5.692491531E-001 5.599616766E-001 5.506742001E-001 5.457748175E-001
 7.118304372E-001 7.013984919E-001 6.909664869E-001 6.854633689E-001 6.823111176E-001
 6.720767617E-001 6.618424058E-001 6.564435363E-001 6.263529658E-001 6.164932251E-001
 6.066334844E-001 6.014322639E-001 5.703948140E-001 5.609096885E-001 5.514246225E-001
 5.464209914E-001 5.408754349E-001 5.315879583E-001 5.223004818E-001 5.174011588E-001
 9.535188675E-001 9.419423938E-001 9.303659201E-001 9.242590070E-001 9.227920175E-001
 9.114131331E-001 9.000343084E-001 8.940317035E-001 8.645448685E-001 8.535406590E-001
 8.425363898E-001 8.367314339E-001 8.062977195E-001 7.956681252E-001 7.850385308E-001
 7.794311047E-001 9.181521535E-001 9.065756798E-001 8.949992061E-001 8.888922930E-001
 8.880290389E-001 8.766502142E-001 8.652713299E-001 8.592687249E-001 8.309264183E-001
 8.199221492E-001 8.089179397E-001 8.031129241E-001 7.738237381E-001 7.631941438E-001
 7.525645494E-001 7.469571829E-001 8.827854395E-001 8.712089658E-001 8.596324921E-001
 8.535255790E-001 8.532661200E-001 8.418872356E-001 8.305084109E-001 8.245057464E-001
 7.973079681E-001 7.863036990E-001 7.752994895E-001 7.694944739E-001 7.413497567E-001
 7.307201624E-001 7.200905681E-001 7.144832015E-001 1.131466866E+000 1.118745923E+000
 1.106024861E+000 1.099314213E+000 1.100739956E+000 1.088216662E+000 1.075693250E+000
 1.069086909E+000 1.042492867E+000 1.030344129E+000 1.018195391E+000 1.011786699E+000
 9.842457175E-001 9.724715948E-001 9.606974721E-001 9.544863701E-001 1.092603683E+000
 1.079882622E+000 1.067161679E+000 1.060451031E+000 1.062480569E+000 1.049957156E+000
 1.037433863E+000 1.030827403E+000 1.005377889E+000 9.932291508E-001 9.810804129E-001
 9.746716619E-001 9.482752085E-001 9.365011454E-001 9.247270226E-001 9.185159206E-001
 1.053740382E+000 1.041019440E+000 1.028298497E+000 1.021587849E+000 1.024221063E+000
 1.011697769E+000 9.991743565E-001 9.925680161E-001 9.682629108E-001 9.561141729E-001
 9.439654946E-001 9.375567436E-001 9.123047590E-001 9.005306959E-001 8.887565732E-001
 8.825454712E-001 1.416001797E+000 1.421179891E+000 1.426357865E+000 1.429089427E+000
 1.366870284E+000 1.368957639E+000 1.371044993E+000 1.372146130E+000 1.273734331E+000
 1.269962907E+000 1.266191363E+000 1.264201880E+000 1.180598378E+000 1.170968056E+000
 1.161337852E+000 1.156257629E+000 1.431820869E+000 1.436998963E+000 1.442176938E+000
 1.444908500E+000 1.373247147E+000 1.375334501E+000 1.377421856E+000 1.378522992E+000
 1.262212276E+000 1.258440852E+000 1.254669309E+000 1.252679706E+000 1.151177406E+000
 1.141547084E+000 1.131916761E+000 1.126836538E+000 1.447639942E+000 1.452818036E+000
 1.457996011E+000 1.460727572E+000 1.379624128E+000 1.381711483E+000 1.383798838E+000
 1.384899855E+000 1.250690222E+000 1.246918678E+000 1.243147254E+000 1.241157651E+000
 1.121756315E+000 1.112125993E+000 1.102495670E+000 1.097415447E+000 1.700536847E+000
 1.723613858E+000 1.746690869E+000 1.758864522E+000 1.651405334E+000 1.671391606E+000
 1.691377878E+000 1.701921225E+000 1.558269382E+000 1.572396874E+000 1.586524367E+000
 1.593976974E+000 1.465133429E+000 1.473402143E+000 1.481670737E+000 1.486032724E+000
 1.771038175E+000 1.794115186E+000 1.817192197E+000 1.829365849E+000 1.712464452E+000
 1.732450843E+000 1.752437115E+000 1.762980461E+000 1.601429582E+000 1.615557075E+000
 1.629684567E+000 1.637137175E+000 1.490394592E+000 1.498663306E+000 1.506932020E+000
 1.511294007E+000 1.841539621E+000 1.864616632E+000 1.887693524E+000 1.899867296E+000
 1.773523688E+000 1.793509960E+000 1.813496351E+000 1.824039578E+000 1.644589782E+000
 1.658717275E+000 1.672844768E+000 1.680297375E+000 1.515655875E+000 1.523924589E+000
 1.532193303E+000 1.536555171E+000 1.989410043E+000 2.038609505E+000 2.087809086E+000
 2.113763332E+000 1.939529419E+000 1.984218359E+000 2.028907299E+000 2.052481651E+000
 1.844973445E+000 1.881111741E+000 1.917250037E+000 1.936313868E+000 1.750417471E+000
 1.778005123E+000 1.805592775E+000 1.820145965E+000 2.139717340E+000 2.188916922E+000
 2.238116503E+000 2.264070511E+000 2.076056242E+000 2.120745182E+000 2.165434122E+000
 2.189008713E+000 1.955377698E+000 1.991515994E+000 2.027654409E+000 2.046718121E+000
 1.834699154E+000 1.862286806E+000 1.889874458E+000 1.904427648E+000 2.290024519E+000
 2.339224100E+000 2.388423681E+000 2.414377689E+000 2.212583065E+000 2.257272005E+000
 2.301960945E+000 2.325535536E+000 2.065782070E+000 2.101920366E+000 2.138058662E+000
 2.157122374E+000 1.918980837E+000 1.946568489E+000 1.974156260E+000 1.988709450E+000
 2.278283119E+000 2.353605509E+000 2.428927660E+000 2.468662024E+000 2.228402615E+000
 2.299214125E+000 2.370025635E+000 2.407380342E+000 2.133846521E+000 2.196107626E+000