TITLE     = "Viper 2D flow field data"
VARIABLES = "X"
"Y"
"U"
"V"
"P"
"vort_xy_plane"
ZONE T="Data zone"
 STRANDID=0, SOLUTIONTIME=0
 Nodes=8240, Elements=8064, ZONETYPE=FEQuadrilateral
 DATAPACKING=BLOCK
 DT=(SINGLE SINGLE SINGLE SINGLE SINGLE SINGLE )
 5.285884738E-001 5.162792802E-001 4.929454923E-001 4.696116745E-001 4.573025107E-001
 5.272687674E-001 5.150288939E-001 4.918264449E-001 4.686240256E-001 4.563841522E-001
 5.247671604E-001 5.126585960E-001 4.897052050E-001 4.667517841E-001 4.546432495E-001
 5.222654939E-001 5.102883577E-001 4.875839353E-001 4.648795128E-001 4.529023767E-001
 5.209457874E-001 5.090379715E-001 4.864649177E-001 4.638918638E-001 4.519840181E-001
 4.449933171E-001 4.216594994E-001 3.983257115E-001 3.860165179E-001 4.441442490E-001
 4.209418297E-001 3.977393806E-001 3.854995072E-001 4.425347447E-001 4.195813239E-001
 3.966279030E-001 3.845193684E-001 4.409252405E-001 4.182208180E-001 3.955163956E-001
 3.835392594E-001 4.400761724E-001 4.175031185E-001 3.949300647E-001 3.830222189E-001
 5.362311006E-001 5.235205889E-001 4.994260371E-001 4.753314555E-001 4.626209736E-001
 5.349114537E-001 5.222702026E-001 4.983070195E-001 4.743438065E-001 4.617026150E-001
 5.324097872E-001 5.198999643E-001 4.961857498E-001 4.724715650E-001 4.599617422E-001
 5.299081206E-001 5.175296664E-001 4.940645099E-001 4.705993235E-001 4.582208693E-001
 4.499104917E-001 4.258159101E-001 4.017213285E-001 3.890108466E-001 4.490614235E-001
 4.250982106E-001 4.011349976E-001 3.884938061E-001 4.474518895E-001 4.237377048E-001
 4.000235200E-001 3.875136971E-001 4.458423853E-001 4.223771989E-001 3.989120424E-001
 3.865335584E-001 -6.894400120E-001 -6.871472001E-001 -6.828008890E-001 -6.784545779E-001
 -6.761618257E-001 -7.114858627E-001 -7.100484371E-001 -7.073236108E-001 -7.045987844E-001
 -7.031612992E-001 -7.532770634E-001 -7.534610629E-001 -7.538099289E-001 -7.541587949E-001
 -7.543427944E-001 -7.950682044E-001 -7.968736887E-001 -8.002962470E-001 -8.037188053E-001
 -8.055242896E-001 -8.171140552E-001 -8.197749257E-001 -8.248189688E-001 -8.298629522E-001
 -8.325238228E-001 -6.738690138E-001 -6.695227027E-001 -6.651763916E-001 -6.628835797E-001
 -7.017238736E-001 -6.989990473E-001 -6.962742209E-001 -6.948367953E-001 -7.545268536E-001
 -7.548757195E-001 -7.552245855E-001 -7.554085851E-001 -8.073297739E-001 -8.107523918E-001
 -8.141749501E-001 -8.159804344E-001 -8.351846933E-001 -8.402287364E-001 -8.452727199E-001
 -8.479335904E-001 -8.391599655E-001 -8.426761627E-001 -8.493416309E-001 -8.560071588E-001
 -8.595233560E-001 -8.809511065E-001 -8.860887885E-001 -8.958279490E-001 -9.055671692E-001
 -9.107048512E-001 -9.227422476E-001 -9.295014143E-001 -9.423143268E-001 -9.551271796E-001
 -9.618863463E-001 -9.447881579E-001 -9.524026513E-001 -9.668369889E-001 -9.812713861E-001
 -9.888858795E-001 -8.630395532E-001 -8.697050810E-001 -8.763705492E-001 -8.798867464E-001
 -9.158425331E-001 -9.255816936E-001 -9.353209138E-001 -9.404585958E-001 -9.686454535E-001
 -9.814583659E-001 -9.942712784E-001 -1.001030445E+000 -9.965003729E-001 -1.010934711E+000
 -1.025369048E+000 -1.032983541E+000 -9.668340087E-001 -9.753038883E-001 -9.913597107E-001
 -1.007415533E+000 -1.015885353E+000 -1.008625150E+000 -1.018716455E+000 -1.037846088E+000
 -1.056975603E+000 -1.067066908E+000 -1.050416350E+000 -1.062129140E+000 -1.084332347E+000
 -1.106535554E+000 -1.118248343E+000 -1.072462201E+000 -1.085030317E+000 -1.108855009E+000
 -1.132679820E+000 -1.145247936E+000 -1.024355292E+000 -1.040411115E+000 -1.056466937E+000
 -1.064936757E+000 -1.077158213E+000 -1.096287727E+000 -1.115417242E+000 -1.125508547E+000
 -1.129961133E+000 -1.152164340E+000 -1.174367666E+000 -1.186080456E+000 -1.157816052E+000
 -1.181640744E+000 -1.205465436E+000 -1.218033552E+000 -1.106192470E+000 -1.120842576E+000
 -1.148614049E+000 -1.176385522E+000 -1.191035628E+000 -1.170132875E+000 -1.188729763E+000
 -1.223982930E+000 -1.259235978E+000 -1.277832866E+000 -1.234073400E+000 -1.256616950E+000
 -1.299351811E+000 -1.342086554E+000 -1.364630222E+000 -1.267803550E+000 -1.292429209E+000
 -1.339110732E+000 -1.385792255E+000 -1.410417914E+000 -1.205685735E+000 -1.233457208E+000
 -1.261228681E+000 -1.275878906E+000 -1.296429753E+000 -1.331682920E+000 -1.366935968E+000
 -1.385532975E+000 -1.387173772E+000 -1.429908633E+000 -1.472643375E+000 -1.495187044E+000
 -1.435043573E+000 -1.481725097E+000 -1.528406620E+000 -1.553032279E+000 -1.301533818E+000
 -1.328241467E+000 -1.378869653E+000 -1.429497957E+000 -1.456205606E+000 -1.365474224E+000
 -1.396128654E+000 -1.454238534E+000 -1.512348533E+000 -1.543002963E+000 -1.429414630E+000
 -1.464015841E+000 -1.529607415E+000 -1.595198989E+000 -1.629800200E+000 -1.463144898E+000
 -1.499828100E+000 -1.569366455E+000 -1.638904691E+000 -1.675587893E+000 -1.482913375E+000
 -1.533541560E+000 -1.584169865E+000 -1.610877514E+000 -1.573657393E+000 -1.631767273E+000
 -1.689877152E+000 -1.720531583E+000 -1.664401412E+000 -1.729992986E+000 -1.795584559E+000
 -1.830185652E+000 -1.712271094E+000 -1.781809449E+000 -1.851347804E+000 -1.888031006E+000
 -1.859520793E+000 -1.843640685E+000 -1.813537598E+000 -1.783434510E+000 -1.767554402E+000
 -1.935257435E+000 -1.916005611E+000 -1.879510880E+000 -1.843016148E+000 -1.823764324E+000
 -2.078827143E+000 -2.053183556E+000 -2.004572630E+000 -1.955961704E+000 -1.930318236E+000
 -2.222396612E+000 -2.190361738E+000 -2.129634380E+000 -2.068907261E+000 -2.036872149E+000
 -2.298133373E+000 -2.262726545E+000 -2.195607662E+000 -2.128489017E+000 -2.093082190E+000
 -1.751674294E+000 -1.721571207E+000 -1.691468120E+000 -1.804512382E+000 -1.768017769E+000
 -1.731523037E+000 -1.904674768E+000 -1.856063843E+000 -1.807452917E+000 -2.004837036E+000
 -1.944110036E+000 -1.883382916E+000 -2.057675362E+000 -1.990556598E+000 -1.923437834E+000
 -1.420908332E+000 -1.424554825E+000 -1.431467414E+000 -1.438380003E+000 -1.442026615E+000
 -1.496644855E+000 -1.496919751E+000 -1.497440696E+000 -1.497961640E+000 -1.498236537E+000
 -1.640214562E+000 -1.634097815E+000 -1.622502565E+000 -1.610907316E+000 -1.604790449E+000
 -1.783784151E+000 -1.771275759E+000 -1.747564316E+000 -1.723852873E+000 -1.711344481E+000
 -1.445673108E+000 -1.452585697E+000 -1.459498286E+000 -1.498511314E+000 -1.499032259E+000
 -1.499553323E+000 -1.598673701E+000 -1.587078452E+000 -1.575483203E+000 -1.698836088E+000
 -1.675124645E+000 -1.651413083E+000 -4.574579895E-001 -4.774865210E-001 -5.154535174E-001
 -5.534204841E-001 -5.734490156E-001 -4.844774604E-001 -5.040766001E-001 -5.412295461E-001
 -5.783825517E-001 -5.979816914E-001 -5.356968045E-001 -5.544819236E-001 -5.900918245E-001
 -6.257017851E-001 -6.444869041E-001 -5.869160891E-001 -6.048872471E-001 -6.389541030E-001
 -6.730210185E-001 -6.909921169E-001 -6.139355898E-001 -6.314772964E-001 -6.647301912E-001
 -6.979830861E-001 -7.155248523E-001 -5.934775472E-001 -6.314445138E-001 -6.694114804E-001
 -6.175808311E-001 -6.547337770E-001 -6.918867826E-001 -6.632720232E-001 -6.988819838E-001
 -7.344918847E-001 -7.089632750E-001 -7.430301905E-001 -7.770970464E-001 -7.330665588E-001
 -7.663194537E-001 -7.995723486E-001 -6.409550309E-001 -6.580674052E-001 -6.905062795E-001
 -7.229451537E-001 -7.400575280E-001 -6.921743751E-001 -7.084727287E-001 -7.393685579E-001
 -7.702643871E-001 -7.865627408E-001 -7.433936596E-001 -7.588780522E-001 -7.882308364E-001
 -8.175836205E-001 -8.330679536E-001 -7.704131603E-001 -7.854681015E-001 -8.140069246E-001
 -8.425456882E-001 -8.576006293E-001 -7.571698427E-001 -7.896087170E-001 -8.220476508E-001
 -8.028610945E-001 -8.337569237E-001 -8.646527529E-001 -8.485522866E-001 -8.779051304E-001
 -9.072579145E-001 -8.726555705E-001 -9.011943936E-001 -9.297332168E-001 -7.974326611E-001
 -8.120582104E-001 -8.397830129E-001 -8.675078154E-001 -8.821333647E-001 -8.486519456E-001
 -8.624634743E-001 -8.886452913E-001 -9.148270488E-001 -9.286385775E-001 -8.998712897E-001
 -9.128687978E-001 -9.375075102E-001 -9.621462822E-001 -9.751437902E-001 -9.268907309E-001
 -9.394589067E-001 -9.632835984E-001 -9.871083498E-001 -9.996764660E-001 -8.967588544E-001
 -9.244836569E-001 -9.522085190E-001 -9.424501061E-001 -9.686318636E-001 -9.948136210E-001
 -9.881413579E-001 -1.012780070E+000 -1.037418842E+000 -1.012244582E+000 -1.036069393E+000
 -1.059894085E+000 -9.695425630E-001 -9.813404083E-001 -1.003705025E+000 -1.026069641E+000
 -1.037867427E+000 -1.050395131E+000 -1.060732841E+000 -1.080329537E+000 -1.099926233E+000
 -1.110264063E+000 -1.131247759E+000 -1.140125394E+000 -1.156954169E+000 -1.173782945E+000
 -1.182660580E+000 -1.173899531E+000 -1.182006836E+000 -1.197375536E+000 -1.212744236E+000
 -1.220851541E+000 -1.049665332E+000 -1.072029948E+000 -1.094394565E+000 -1.120601773E+000
 -1.140198469E+000 -1.159795165E+000 -1.191538215E+000 -1.208366990E+000 -1.225195765E+000
 -1.228958845E+000 -1.244327545E+000 -1.259696245E+000 -1.216551304E+000 -1.223888397E+000
 -1.237796903E+000 -1.251705408E+000 -1.259042501E+000 -1.297403932E+000 -1.303280830E+000
 -1.314421535E+000 -1.325562119E+000 -1.331439018E+000 -1.378256559E+000 -1.382673383E+000
 -1.391046047E+000 -1.399418831E+000 -1.403835654E+000 -1.266379595E+000 -1.280288100E+000
 -1.294196725E+000 -1.337316036E+000 -1.348456621E+000 -1.359597206E+000 -1.408252478E+000
 -1.416625142E+000 -1.424997807E+000 1.719636559E+000 1.719253778E+000 1.718528271E+000
 1.717802644E+000 1.717419982E+000 1.753389716E+000 1.752594352E+000 1.751086473E+000
 1.749578714E+000 1.748783231E+000 1.817373872E+000 1.815796137E+000 1.812805414E+000
 1.809814692E+000 1.808236957E+000 1.881357908E+000 1.878997922E+000 1.874524236E+000
 1.870050669E+000 1.867690682E+000 1.915111065E+000 1.912338495E+000 1.907082558E+000
 1.901826620E+000 1.899054050E+000 1.717037201E+000 1.716311574E+000 1.715586066E+000
 1.715203285E+000 1.747987866E+000 1.746479988E+000 1.744972229E+000 1.744176745E+000
 1.806659222E+000 1.803668499E+000 1.800677776E+000 1.799100041E+000 1.865330696E+000
 1.860857010E+000 1.856383443E+000 1.854023457E+000 1.896281362E+000 1.891025424E+000
 1.885769486E+000 1.882996917E+000 1.524161935E+000 1.526169062E+000 1.529973984E+000
 1.533778787E+000 1.535785913E+000 1.557915211E+000 1.559509635E+000 1.562532187E+000
 1.565554738E+000 1.567149162E+000 1.621899247E+000 1.622711420E+000 1.624251127E+000
 1.625790715E+000 1.626602888E+000 1.685883284E+000 1.685913205E+000 1.685969949E+000
 1.686026692E+000 1.686056614E+000 1.537793040E+000 1.541597843E+000 1.545402646E+000
 1.547409773E+000 1.568743706E+000 1.571766257E+000 1.574788809E+000 1.576383233E+000
 1.627415061E+000 1.628954768E+000 1.630494356E+000 1.631306529E+000 1.686086535E+000
 1.686143279E+000 1.686199903E+000 1.686229825E+000 6.695114970E-001 6.699794531E-001
 6.708665490E-001 6.717536449E-001 6.722216606E-001 6.411549449E-001 6.416977048E-001
 6.427265406E-001 6.437554359E-001 6.442981958E-001 5.874009728E-001 5.880855322E-001
 5.893831253E-001 5.906807780E-001 5.913652778E-001 5.336470604E-001 5.344733596E-001
 5.360397100E-001 5.376060605E-001 5.384323597E-001 5.052905083E-001 5.061915517E-001
 5.078997016E-001 5.096078515E-001 5.105089545E-001 6.726896167E-001 6.735767126E-001
 6.744638085E-001 6.749317646E-001 6.448409557E-001 6.458698511E-001 6.468986869E-001
 6.474414468E-001 5.920498371E-001 5.933474302E-001 5.946450830E-001 5.953295827E-001
 5.392586589E-001 5.408250690E-001 5.423914194E-001 5.432177186E-001 5.114099979E-001
 5.131181479E-001 5.148262978E-001 5.157274008E-001 6.753997803E-001 6.762868762E-001
 6.771739721E-001 6.776419282E-001 6.479842067E-001 6.490131021E-001 6.500419974E-001
 6.505846977E-001 5.960140824E-001 5.973117352E-001 5.986093283E-001 5.992938876E-001
 5.440440178E-001 5.456103683E-001 5.471767187E-001 5.480030179E-001 5.166284442E-001
 5.183365941E-001 5.200447440E-001 8.337324858E-001 8.337673545E-001 8.338333964E-001
 8.338994980E-001 8.339343667E-001 8.053759336E-001 8.054855466E-001 8.056934476E-001
 8.059012890E-001 8.060109019E-001 7.516220212E-001 7.518734336E-001 7.523499727E-001
 7.528265715E-001 7.530779839E-001 6.978680491E-001 6.982612610E-001 6.990065575E-001
 6.997519135E-001 7.001450658E-001 8.339692354E-001 8.340352774E-001 8.341013789E-001
 8.341361880E-001 8.061205745E-001 8.063284159E-001 8.065362573E-001 8.066458702E-001
 7.533293962E-001 7.538059950E-001 7.542825937E-001 7.545340061E-001 7.005382776E-001
 7.012836337E-001 7.020289302E-001 7.024221420E-001 8.341710567E-001 8.342371583E-001
 8.343032002E-001 8.343380690E-001 8.067555428E-001 8.069633842E-001 8.071712255E-001
 8.072808385E-001 7.547854185E-001 7.552620173E-001 7.557386160E-001 7.559900284E-001
 7.028152943E-001 7.035606503E-001 7.043060064E-001 7.046991587E-001 9.979534745E-001
 9.975552559E-001 9.968002439E-001 9.960452914E-001 9.956470728E-001 9.695969224E-001
 9.692734480E-001 9.686602950E-001 9.680470824E-001 9.677236080E-001 9.158430099E-001
 9.156612754E-001 9.153168201E-001 9.149724245E-001 9.147906899E-001 8.620890379E-001
 8.620491028E-001 8.619734049E-001 8.618977070E-001 8.618577719E-001 9.952487946E-001
 9.944938421E-001 9.937388897E-001 9.933406115E-001 9.674001336E-001 9.667869806E-001
 9.661737680E-001 9.658502936E-001 9.146090150E-001 9.142645597E-001 9.139201045E-001
 9.137384295E-001 8.618178368E-001 8.617421985E-001 8.616665006E-001 8.616265655E-001
 9.929423928E-001 9.921874404E-001 9.914324880E-001 9.910342097E-001 9.655268192E-001
 9.649136662E-001 9.643004537E-001 9.639769793E-001 9.135566950E-001 9.132122993E-001
 9.128678441E-001 9.126861095E-001 8.615866303E-001 8.615109324E-001 8.614352345E-001
 8.613952994E-001 1.426480174E+000 1.414262056E+000 1.391100645E+000 1.367939353E+000
 1.355721116E+000 1.352485180E+000 1.342307925E+000 1.323015571E+000 1.303723216E+000
 1.293545961E+000 1.212216854E+000 1.205908656E+000 1.193950415E+000 1.181992292E+000
 1.175684094E+000 1.071948528E+000 1.069509268E+000 1.064885378E+000 1.060261488E+000
 1.057822227E+000 1.343502998E+000 1.320341587E+000 1.297180295E+000 1.284962058E+000
 1.283368826E+000 1.264076471E+000 1.244784117E+000 1.234606862E+000 1.169375896E+000
 1.157417774E+000 1.145459533E+000 1.139151335E+000 1.055382967E+000 1.050758958E+000
 1.046135068E+000 1.043695807E+000 1.272743940E+000 1.249582529E+000 1.226421237E+000
 1.214203000E+000 1.224429727E+000 1.205137253E+000 1.185844898E+000 1.175667763E+000
 1.132843137E+000 1.120885015E+000 1.108926773E+000 1.102618575E+000 1.041256547E+000
 1.036632657E+000 1.032008767E+000 1.029569507E+000 1.855006933E+000 1.830968857E+000
 1.785401106E+000 1.739833355E+000 1.715795279E+000 1.781011820E+000 1.759014726E+000
 1.717316031E+000 1.675617218E+000 1.653620124E+000 1.640743613E+000 1.622615457E+000
 1.588250875E+000 1.553886294E+000 1.535758138E+000 1.500475287E+000 1.486216068E+000
 1.459185719E+000 1.432155490E+000 1.417896271E+000 1.691757083E+000 1.646189332E+000
 1.600621700E+000 1.576583505E+000 1.631622910E+000 1.589924216E+000 1.548225403E+000
 1.526228309E+000 1.517629981E+000 1.483265519E+000 1.448900938E+000 1.430772781E+000
 1.403637052E+000 1.376606822E+000 1.349576473E+000 1.335317254E+000 1.552545428E+000
 1.506977677E+000 1.461409926E+000 1.437371850E+000 1.504231215E+000 1.462532401E+000
 1.420833707E+000 1.398836493E+000 1.412644625E+000 1.378280163E+000 1.343915582E+000
 1.325787425E+000 1.321058154E+000 1.294027805E+000 1.266997457E+000 1.252738237E+000
 2.358078957E+000 2.317909718E+000 2.241763115E+000 2.165616512E+000 2.125447273E+000
 2.271211863E+000 2.233828068E+000 2.162961721E+000 2.092095137E+000 2.054711342E+000
 2.106542826E+000 2.074439287E+000 2.013581991E+000 1.952724934E+000 1.920621276E+000
 1.941873908E+000 1.915050387E+000 1.864202499E+000 1.813354731E+000 1.786531210E+000
 2.085278273E+000 2.009131670E+000 1.932985067E+000 1.892815828E+000 2.017327547E+000
 1.946461201E+000 1.875594854E+000 1.838211060E+000 1.888517618E+000 1.827660441E+000
 1.766803384E+000 1.734699726E+000 1.759707570E+000 1.708859801E+000 1.658011913E+000
 1.631188393E+000 1.852646589E+000 1.776500106E+000 1.700353622E+000 1.660184383E+000
 1.800827265E+000 1.729960799E+000 1.659094453E+000 1.621710658E+000 1.702596068E+000
 1.641738892E+000 1.580881715E+000 1.548778057E+000 1.604364872E+000 1.553516984E+000
 1.502669096E+000 1.475845575E+000 2.861150742E+000 2.804850578E+000 2.698125124E+000
 2.591399908E+000 2.535099506E+000 2.774283886E+000 2.720768929E+000 2.619323730E+000
 2.517878532E+000 2.464363575E+000 2.609614849E+000 2.561380148E+000 2.469944239E+000
 2.378508329E+000 2.330273390E+000 2.444945812E+000 2.401991367E+000 2.320564508E+000
 2.239137888E+000 2.196183205E+000 2.478799105E+000 2.372073889E+000 2.265348434E+000
 2.209048271E+000 2.410848618E+000 2.309403419E+000 2.207958221E+000 2.154443264E+000
 2.282038689E+000 2.190602779E+000 2.099166870E+000 2.050931931E+000 2.153228760E+000
 2.071801901E+000 1.990375280E+000 1.947420716E+000 2.152747869E+000 2.046022654E+000
 1.939297199E+000 2.100928545E+000 1.999483228E+000 1.898038030E+000 1.844523072E+000
 2.002697229E+000 1.911261320E+000 1.819825411E+000 1.771590590E+000 1.904466033E+000
 1.823039412E+000 1.741612673E+000 1.698658109E+000 6.764559746E-001 6.742077470E-001
 6.719595194E-001 6.707735658E-001 6.498314142E-001 6.484033465E-001 6.469753385E-001
 6.462219954E-001 5.993607044E-001 5.994874239E-001 5.996141434E-001 5.996810198E-001
 5.488900542E-001 5.505715013E-001 5.522530079E-001 5.531399846E-001 6.695875525E-001
 6.673393846E-001 6.650911570E-001 6.639052033E-001 6.454687119E-001 6.440406442E-001
 6.426126361E-001 6.418592930E-001 5.997478366E-001 5.998745561E-001 6.000012755E-001
 6.000681520E-001 5.540270209E-001 5.557085276E-001 5.573899746E-001 5.582770109E-001
 8.306463957E-001 8.236483932E-001 8.166503310E-001 8.129586577E-001 8.040218949E-001
 7.978439927E-001 7.916660905E-001 7.884070873E-001 7.535511851E-001 7.489280701E-001
 7.443049550E-001 7.418661118E-001 7.030805349E-001 7.000121474E-001 6.969437599E-001
 6.953251362E-001 8.092670441E-001 8.022689819E-001 7.952709198E-001 7.915792465E-001
 7.851481438E-001 7.789702415E-001 7.727923393E-001 7.695333958E-001 7.394272685E-001
 7.348041534E-001 7.301810384E-001 7.277421951E-001 6.937064528E-001 6.906380653E-001
 6.875697374E-001 6.859510541E-001 9.848368764E-001 9.730889797E-001 9.613410830E-001
 9.551437497E-001 9.582123160E-001 9.472845793E-001 9.363568425E-001 9.305922389E-001
 9.077416658E-001 8.983686566E-001 8.889957070E-001 8.840512037E-001 8.572709560E-001
 8.494527340E-001 8.416345119E-001 8.375102282E-001 9.489464760E-001 9.371985793E-001
 9.254506230E-001 9.192533493E-001 9.248275757E-001 9.138998389E-001 9.029721022E-001
 8.972074389E-001 8.791067600E-001 8.697337508E-001 8.603608012E-001 8.554162979E-001
 8.333858848E-001 8.255676627E-001 8.177494407E-001 8.136251569E-001 1.204328418E+000
 1.185609698E+000 1.166890860E+000 1.157016277E+000 1.166428089E+000 1.148913026E+000
 1.131397963E+000 1.122158289E+000 1.094582677E+000 1.079349279E+000 1.064116001E+000
 1.056079984E+000 1.022737145E+000 1.009785652E+000 9.968340397E-001 9.900017381E-001
 1.147141695E+000 1.128422856E+000 1.109704137E+000 1.099829555E+000 1.112918615E+000
 1.095403552E+000 1.077888489E+000 1.068648815E+000 1.048044086E+000 1.032810688E+000
 1.017577410E+000 1.009541392E+000 9.831694365E-001 9.702178836E-001 9.572662711E-001
 9.504339695E-001 1.423819900E+000 1.398130298E+000 1.372440696E+000 1.358888745E+000
 1.385919571E+000 1.361433625E+000 1.336947799E+000 1.324030876E+000 1.314074159E+000
 1.291869998E+000 1.269665837E+000 1.257952571E+000 1.242228746E+000 1.222306252E+000
 1.202383876E+000 1.191874266E+000 1.345336914E+000 1.319647312E+000 1.293957710E+000
 1.280405760E+000 1.311113834E+000 1.286628008E+000 1.262142062E+000 1.249225140E+000
 1.246239305E+000 1.224035144E+000 1.201830864E+000 1.190117598E+000 1.181364655E+000
 1.161442280E+000 1.141519785E+000 1.131010175E+000 1.638921618E+000 1.598615170E+000
 1.558308721E+000 1.537046075E+000 1.601779342E+000 1.563996792E+000 1.526214361E+000
 1.506283045E+000 1.531370759E+000 1.498372793E+000 1.465374708E+000 1.447967410E+000
 1.460962176E+000 1.432748675E+000 1.404535174E+000 1.389651775E+000 1.515783429E+000
 1.475476861E+000 1.435170412E+000 1.413907766E+000 1.486351848E+000 1.448569298E+000
 1.410786748E+000 1.390855551E+000 1.430560112E+000 1.397562027E+000 1.364564061E+000
 1.347156763E+000 1.374768376E+000 1.346554875E+000 1.318341374E+000 1.303457975E+000
 1.816881180E+000 1.764481783E+000 1.712082386E+000 1.684440374E+000 1.746472597E+000
 1.698857665E+000 1.651242733E+000 1.626124740E+000 1.676064014E+000 1.633233547E+000
 1.590403199E+000 1.567808986E+000 1.656798363E+000 1.604398966E+000 1.551999569E+000
 1.524357557E+000 1.601006627E+000 1.553391695E+000 1.505776882E+000 1.480658770E+000
 1.545214891E+000 1.502384543E+000 1.459554076E+000 1.436959982E+000 6.497964859E-001
 6.230514646E-001 5.963064432E-001 5.821977854E-001 6.279920340E-001 6.017047167E-001
 5.754173398E-001 5.615500808E-001 5.866585374E-001 5.612387657E-001 5.358189940E-001
 5.224093795E-001 5.453251004E-001 5.207728148E-001 4.962206185E-001 4.832686782E-001
 5.680891275E-001 5.413441062E-001 5.145990849E-001 5.004904270E-001 5.476828218E-001
 5.213955045E-001 4.951081276E-001 4.812408686E-001 5.089998245E-001 4.835799932E-001
 4.581602216E-001 4.447506368E-001 4.703167677E-001 4.457645118E-001 4.212122858E-001
 4.082603753E-001 7.760723829E-001 7.466769218E-001 7.172814608E-001 7.017745972E-001
 7.542679310E-001 7.253301144E-001 6.963923573E-001 6.811268926E-001 7.129344344E-001
 6.848642230E-001 6.567939520E-001 6.419861913E-001 6.716009974E-001 6.443982720E-001
 6.171956062E-001 6.028454900E-001 6.862677932E-001 6.568722725E-001 6.274768114E-001
 6.119699478E-001 6.658614874E-001 6.369236708E-001 6.079858541E-001 5.927204490E-001
 6.271784306E-001 5.991082191E-001 5.710379481E-001 5.562301874E-001 5.884953737E-001
 5.612927079E-001 5.340900421E-001 5.197399259E-001 9.023482800E-001 8.703023791E-001
 8.382564783E-001 8.213514090E-001 8.805438280E-001 8.489555717E-001 8.173673153E-001
 8.007037044E-001 8.392103314E-001 8.084896803E-001 7.777689695E-001 7.615630031E-001
 7.978768349E-001 7.680237293E-001 7.381706238E-001 7.224223018E-001 8.044463992E-001
 7.724004984E-001 7.403545976E-001 7.234495282E-001 7.840401530E-001 7.524518967E-001
 7.208636403E-001 7.042000294E-001 7.453570962E-001 7.146363854E-001 6.839156747E-001
 6.677097678E-001 7.066740394E-001 6.768209338E-001 6.469677687E-001 6.312195063E-001
 1.084616899E+000 1.055779099E+000 1.026941299E+000 1.011728644E+000 1.053143978E+000
 1.023752213E+000 9.943604469E-001 9.788555503E-001 9.934825897E-001 9.630407095E-001
 9.325988889E-001 9.165400267E-001 9.338212013E-001 9.023292065E-001 8.708372712E-001
 8.542244434E-001 9.965159297E-001 9.676781297E-001 9.388403296E-001 9.236276746E-001
 9.633506536E-001 9.339588881E-001 9.045671821E-001 8.890622854E-001 9.004811645E-001
 8.700392842E-001 8.395974636E-001 8.235386014E-001 8.376116753E-001 8.061196804E-001
 7.746277452E-001 7.580149174E-001 1.266885400E+000 1.241255760E+000 1.215626121E+000
 1.202105761E+000 1.235412598E+000 1.209228873E+000 1.183045268E+000 1.169232726E+000
 1.175751209E+000 1.148517370E+000 1.121283650E+000 1.106917143E+000 1.116089821E+000
 1.087805867E+000 1.059522033E+000 1.044601679E+000 1.188585401E+000 1.162955761E+000
 1.137326121E+000 1.123805761E+000 1.155420184E+000 1.129236579E+000 1.103052855E+000
 1.089240313E+000 1.092550635E+000 1.065316916E+000 1.038083196E+000 1.023716688E+000
 1.029681206E+000 1.001397371E+000 9.731134772E-001 9.581930637E-001 1.406144023E+000
 1.391426802E+000 1.376709580E+000 1.368945837E+000 1.382097840E+000 1.365496278E+000
 1.348894715E+000 1.340137005E+000 1.336514711E+000 1.316341281E+000 1.296167850E+000
 1.285525799E+000 1.290931702E+000 1.267186284E+000 1.243440866E+000 1.230914593E+000
 1.361182094E+000 1.346464872E+000 1.331747532E+000 1.323983908E+000 1.331379294E+000
 1.314777732E+000 1.298176169E+000 1.289418459E+000 1.274883747E+000 1.254710317E+000
 1.234536886E+000 1.223894835E+000 1.218388200E+000 1.194642901E+000 1.170897484E+000
 1.158371091E+000 1.521356463E+000 1.515667319E+000 1.509978175E+000 1.506977081E+000
 1.475773335E+000 1.466512322E+000 1.457251310E+000 1.452365875E+000 1.430190206E+000
 1.417357326E+000 1.404524326E+000 1.397754669E+000 1.503975987E+000 1.498286843E+000
 1.492597699E+000 1.489596605E+000 1.447480440E+000 1.438219428E+000 1.428958297E+000
 1.424072981E+000 1.390984893E+000 1.378151894E+000 1.365319014E+000 1.358549237E+000
 4.903433025E-001 4.711080492E-001 4.518727660E-001 4.417256713E-001 4.714117646E-001
 4.527792335E-001 4.341467023E-001 4.243175983E-001 4.355242550E-001 4.180343449E-001
 4.005444646E-001 3.913180828E-001 3.996367753E-001 3.832894862E-001 3.669421971E-001
 3.583185971E-001 3.807052076E-001 3.649606705E-001 3.492161334E-001 3.409105241E-001
 4.315785766E-001 4.123432934E-001 3.931080103E-001 3.829609156E-001 4.144884646E-001
 3.958559632E-001 3.772234321E-001 3.673942983E-001 3.820917308E-001 3.646018207E-001
 3.471119106E-001 3.378855586E-001 3.496949673E-001 3.333476782E-001 3.170003891E-001
 3.083767891E-001 3.326048851E-001 3.168603480E-001 3.011158109E-001 2.928101718E-001
 3.728138208E-001 3.535785377E-001 3.343432844E-001 3.241961896E-001 3.575651944E-001
 3.389326632E-001 3.203001320E-001 3.104710281E-001 3.286591768E-001 3.111692965E-001
 2.936793864E-001 2.844530046E-001 2.997531891E-001 2.834059000E-001 2.670586109E-001
 2.584350109E-001 2.845045328E-001 2.687600255E-001 2.530154884E-001 2.447098494E-001
 5.999814272E-001 5.772553682E-001 5.545293689E-001 5.425407887E-001 5.810498595E-001
 5.589265823E-001 5.368033051E-001 5.251327157E-001 5.451623797E-001 5.241817236E-001
 5.032010674E-001 4.921332300E-001 5.092749000E-001 4.894368351E-001 4.695987999E-001
 4.591337442E-001 5.305522680E-001 5.078262091E-001 4.851002097E-001 4.731116593E-001
 5.134621859E-001 4.913389087E-001 4.692156315E-001 4.575450420E-001 4.810654223E-001
 4.600847661E-001 4.391041100E-001 4.280363023E-001 4.486686587E-001 4.288306236E-001
 4.089925885E-001 3.985275328E-001 4.611231089E-001 4.383970797E-001 4.156710505E-001
 4.036825001E-001 4.458744526E-001 4.237512052E-001 4.016279280E-001 3.899573386E-001
 4.169684649E-001 3.959878087E-001 3.750071526E-001 3.639393449E-001 3.880624771E-001
 3.682244420E-001 3.483864069E-001 3.379213214E-001 7.096195221E-001 6.834027767E-001
 6.571859717E-001 6.433559656E-001 6.906879544E-001 6.650739312E-001 6.394599080E-001
 6.259478927E-001 6.548004746E-001 6.303290725E-001 6.058576703E-001 5.929483771E-001
 6.189129949E-001 5.955842137E-001 5.722554326E-001 5.599488616E-001 6.295259595E-001
 6.033091545E-001 5.770924091E-001 5.632624030E-001 6.124358773E-001 5.868218541E-001
 5.612078309E-001 5.476957560E-001 5.800390840E-001 5.555676818E-001 5.310962796E-001
 5.181870461E-001 5.476423502E-001 5.243135691E-001 5.009847879E-001 4.886782765E-001
 5.494323969E-001 5.232155919E-001 4.969988167E-001 4.831688106E-001 5.341837406E-001
 5.085697174E-001 4.829556942E-001 4.694436789E-001 5.052777529E-001 4.808063507E-001
 4.563349485E-001 4.434256554E-001 4.763717353E-001 4.530429542E-001 4.297141731E-001
 4.174076617E-001 9.102284908E-001 8.848284483E-001 8.594284654E-001 8.460292816E-001
 8.755887151E-001 8.500476480E-001 8.245065808E-001 8.110330701E-001 8.099240065E-001
 7.841156125E-001 7.583072186E-001 7.446926236E-001 7.442592978E-001 7.181835771E-001
 6.921077967E-001 6.783522367E-001 8.326301575E-001 8.072301149E-001 7.818300724E-001
 7.684309483E-001 7.975594997E-001 7.720184326E-001 7.464773655E-001 7.330038548E-001
 7.310780287E-001 7.052696347E-001 6.794612408E-001 6.658466458E-001 6.645966172E-001
 6.385208368E-001 6.124451160E-001 5.986894965E-001 7.550317645E-001 7.296317816E-001
 7.042317390E-001 6.908325553E-001 7.195302844E-001 6.939892173E-001 6.684481502E-001
 6.549746394E-001 6.522321105E-001 6.264236569E-001 6.006152630E-001 5.870006680E-001
 5.849338770E-001 5.588581562E-001 5.327823758E-001 5.190267563E-001 1.110837460E+000
 1.086254239E+000 1.061670899E+000 1.048702598E+000 1.076197624E+000 1.051473379E+000
 1.026749015E+000 1.013706326E+000 1.010532975E+000 9.855413437E-001 9.605496526E-001
 9.473659396E-001 9.448682666E-001 9.196093082E-001 8.943502903E-001 8.810255527E-001
 1.035734296E+000 1.011151075E+000 9.865677953E-001 9.735994935E-001 1.000663638E+000
 9.759393930E-001 9.512150884E-001 9.381724000E-001 9.341822267E-001 9.091905951E-001
 8.841989040E-001 8.710151911E-001 8.677007556E-001 8.424417973E-001 8.171827793E-001
 8.038580418E-001 9.606311917E-001 9.360479116E-001 9.114646316E-001 8.984963298E-001
 9.251296520E-001 9.004053473E-001 8.756810427E-001 8.626383543E-001 8.578314781E-001
 8.328398466E-001 8.078481555E-001 7.946644425E-001 7.905333042E-001 7.652742863E-001
 7.400152683E-001 7.266905308E-001 1.313501835E+000 1.293631792E+000 1.273761630E+000
 1.263279557E+000 1.278507113E+000 1.257823229E+000 1.237139225E+000 1.226227880E+000
 1.212169647E+000 1.189942956E+000 1.167716265E+000 1.155991077E+000 1.145832181E+000
 1.122062683E+000 1.098293304E+000 1.085754275E+000 1.252797604E+000 1.232927442E+000
 1.213057399E+000 1.202575326E+000 1.215316653E+000 1.194632649E+000 1.173948646E+000
 1.163037300E+000 1.144266009E+000 1.122039318E+000 1.099812508E+000 1.088087440E+000
 1.073215365E+000 1.049445868E+000 1.025676489E+000 1.013137460E+000 1.192093372E+000
 1.172223210E+000 1.152353048E+000 1.141871095E+000 1.152126074E+000 1.131442070E+000
 1.110758066E+000 1.099846840E+000 1.076362252E+000 1.054135561E+000 1.031908870E+000
 1.020183682E+000 1.000598431E+000 9.768290520E-001 9.530596137E-001 9.405206442E-001
 1.516166329E+000 1.501009345E+000 1.485852242E+000 1.477856636E+000 1.481171608E+000
 1.465200782E+000 1.449229956E+000 1.440804958E+000 1.414834023E+000 1.397320509E+000